# vtk DataFile Version 2.0
Really cool data
ASCII
DATASET UNSTRUCTURED_GRID
POINTS 584 double
-1.0 0.0 0.0
-0.9600374798207896 -0.027590413451835553 0.04
-0.9589620457797374 -0.028177574718636023 0.0
-0.9553815213922792 0.019675326217199102 0.04
0.6719637381218919 0.02110482676547816 0.0
0.6414775595248179 0.020020515529780993 0.04
0.6571281419012174 0.06 0.0
0.6240641012293764 0.022292119262118645 0.0
0.687851041884645 0.021313940245698455 0.04
0.7030120427199962 0.06 0.04
0.657128141901218 0.06 0.04
0.7030120427199952 0.06 0.0
0.6885310613992013 -0.0196061899732657 0.0
0.6720046167250797 -0.020579604775701428 0.04
0.6407079554435648 -0.019738458112036637 0.0
0.7171469290115033 0.021165332718839136 0.0
-0.7921016077200962 -0.06 0.04
-0.7604373514312079 -0.019298436119384588 0.0
-0.7479973317145423 -0.06 0.04
-0.7479973317145417 -0.06 0.0
0.7030120427199962 -0.06 0.0
0.7030120427199952 -0.06 0.04
0.6571281419012174 -0.06 0.04
0.7479973317145417 -0.06 0.04
0.7325903506195701 -0.020274227246539274 0.0
0.7176321617908783 -0.019839353713154383 0.04
0.7604373514312079 -0.019298436119384588 0.04
-0.8488906624897727 0.019856366527450334 0.04000000000000001
-0.8052789150181434 -0.019306901564895652 0.0
-0.805541091654972 0.020469431563422978 0.04000000000000001
-0.8203038938742353 -0.020636147377884773 0.04
0.897529295217204 0.022569895749215793 0.0
0.8488906624897727 0.019856366527450334 0.0
0.8569454102823642 0.029774901726562965 0.04
0.8777357995360431 0.06 0.0
0.9553815213922792 0.019675326217199102 0.0
0.95349853104827 0.02147987272312249 0.04
0.9103536180674616 -0.021283841161765512 0.0
-0.5450807564691462 -0.01715484187473429 0.04000000000000001
-0.5372746904547943 0.02439300391790418 0.04
-0.49049502097572617 0.000359712426279548 0.04000000000000001
-0.5409244119327052 -0.005150142234760652 0.0
-0.48901428549955095 -0.02776609156780287 0.019771763033692314
-0.4642419910175897 -0.06 0.04
-0.43891524330526177 8.673617379884035e-17 0.04000000000000001
0.7479973317145423 -0.06 0.0
0.9600486361512215 0.06 0.04
1.0 0.06 0.04
1.0 0.06 0.0
0.9192992165657531 0.06 0.0
0.7479973317145423 0.06 0.04
0.7309057796957548 0.02177174945441851 0.039999999999999994
0.7479973317145417 0.06 0.0
0.7613659684934695 0.020945326906433456 0.0
0.7736855084518748 0.020914979208800512 0.04
-0.8570647961856006 -0.015388027432140593 0.0
-0.8569454102823642 0.029774901726562965 0.0
-0.8649535140731797 -0.02016838668923704 0.039999999999999994
-0.1726925416005594 -1.214306433183765e-16 0.039999999999999994
-0.22806385632140147 1.0755285551056204e-16 0.039999999999999994
-0.2006519843784229 0.06 0.0
-0.22806385632140147 -1.1796119636642288e-16 0.0
0.438611990705585 -5.252150912499892e-05 0.04
0.41358849559293387 -0.06 0.04
0.4135884955929341 -0.06 0.0
0.4642419910175897 -0.06 0.0
0.4782715374234063 0.0302584611690398 0.019894876072988572
0.513903464641242 0.06 0.0
0.49049502097572617 0.000359712426279548 0.0
0.46424199101758934 0.06 0.0
0.46424199101758934 -0.06 0.04
-0.8164681441220105 0.022269284396602723 0.0
0.48912437490067595 -0.00041996788971368666 0.04
0.4642419910175897 0.06 0.04
-0.8353421249080566 0.06 0.04
0.8649535140731797 -0.02016838668923704 0.0
0.8973163514988121 0.02144006532192878 0.04
0.5625923446839085 0.06 0.04
0.6103276788742331 0.06 0.0
0.5943416245309461 0.018901239582525348 0.04
0.5790918012159274 0.021628695864523574 0.0
-0.593631917725493 -0.01946781888421301 0.04
-0.6103276788742336 -0.06 0.04
-0.6407079554435648 -0.019738458112036637 0.039999999999999994
-0.6264545933043166 -0.021459100211208025 0.0
-0.6103276788742331 -0.06 0.0
-0.6103276788742336 0.06 0.0
-0.6240641012293764 0.022292119262118645 0.04
-0.6414775595248179 0.020020515529780993 0.0
-0.5943416245309461 0.018901239582525348 0.0
-0.5790918012159274 0.021628695864523574 0.04000000000000001
-0.5625923446839077 0.06 0.04
-0.6103276788742331 0.06 0.04
-0.5625923446839085 0.06 0.0
-0.7325903506195701 -0.020274227246539274 0.039999999999999994
-0.7176321617908783 -0.019839353713154383 0.0
-0.7309057796957548 0.02177174945441851 0.0
-0.7736855084518748 0.020914979208800512 0.0
-0.7613659684934695 0.020945326906433456 0.04
-0.6571281419012174 0.06 0.04
-0.6719637381218919 0.02110482676547816 0.039999999999999994
-0.7030120427199952 0.06 0.04
-0.687851041884645 0.021313940245698455 0.0
-0.029521960903255984 -0.06 0.04
-0.05860957814939871 -6.938893903907228e-17 0.039999999999999994
-0.05860957814939863 5.898059818321144e-17 0.0
-0.08769719539554167 -0.06 0.0
-0.08769719539554144 -0.06 0.04
-0.2823507532564078 -5.204170427930421e-17 0.04
-0.25547572826437986 0.06 0.04
-0.25547572826438003 0.06 0.0
0.38751191920162714 6.938893903907228e-18 0.0
0.3352618020299945 -3.469446951953614e-18 0.0
0.36192316205531716 0.06 0.04
0.3619231620553172 0.06 0.0
-0.36192316205531716 0.06 0.0
-0.335244821032008 -1.1796296425746478e-06 0.0
-0.3352618020299945 -3.469446951953614e-18 0.039999999999999994
-0.38745316199969926 -7.894682722445895e-06 0.0
-0.3619231620553172 0.06 0.04
-0.3092257782484355 0.06 0.04
0.28235075325640757 5.551115123125783e-17 0.039999999999999994
0.30922577824843556 -0.06 0.0
0.335244821032008 -1.1796296425746478e-06 0.04
0.3092257782484355 -0.06 0.04
0.36192316205531716 -0.06 0.0
0.38745316199969926 -7.894682722445895e-06 0.04
0.3092257782484355 0.06 0.0
-0.38751191920162714 6.938893903907228e-18 0.04
-0.28235075325640757 5.551115123125783e-17 0.0
-0.30922577824843556 0.06 0.0
0.6103276788742336 -0.06 0.0
0.593631917725493 -0.01946781888421301 0.0
0.6264545933043166 -0.021459100211208025 0.04
0.4889627886584896 -0.027603176797077415 0.020155725176282127
0.583287522480325 -0.023728770665855194 0.039999999999999994
0.5450807564691462 -0.01715484187473429 0.0
0.5409244119327052 -0.005150142234760652 0.04
-0.48912437490067595 -0.00041996788971368666 0.0
0.3619231620553172 -0.06 0.04
-0.657128141901218 0.06 0.0
0.9600374798207896 -0.027590413451835553 0.0
1.0 0.0 0.04
0.9589620457797374 -0.028177574718636023 0.04
0.5625923446839077 -0.06 0.04
0.5625923446839085 -0.06 0.0
0.7766984080639845 -0.02052537972713625 0.0
-0.438611990705585 -5.252150912499892e-05 0.0
-0.583287522480325 -0.023728770665855194 0.0
-0.9600486361512215 0.06 0.0
-0.95349853104827 0.02147987272312249 0.0
-0.9192992165657539 0.06 0.0
-0.9192992165657531 0.06 0.04
-1.0 0.06 0.0
-0.14473309882269625 -0.06 0.04
-0.14473309882269605 -0.06 0.0
-0.11621514710911887 -1.214306433183765e-16 0.0
-0.17269254160055947 1.1796119636642288e-16 0.0
-0.14473309882269625 0.06 0.0
-0.11621514710911884 1.214306433183765e-16 0.039999999999999994
-0.8353421249080566 -0.06 0.0
-0.8353421249080575 -0.06 0.04
-0.8973163514988121 0.02144006532192878 0.0
-0.897529295217204 0.022569895749215793 0.04
0.11621514710911887 -1.214306433183765e-16 0.039999999999999994
0.05860957814939871 -6.938893903907228e-17 0.0
0.05860957814939863 5.898059818321144e-17 0.039999999999999994
0.08769719539554144 0.06 0.04
0.6103276788742336 0.06 0.04
0.5139034646412424 -0.06 0.0
0.9096368506350345 -0.020963842829632554 0.04
0.805541091654972 0.020469431563422978 0.0
0.8052789150181434 -0.019306901564895652 0.04
0.8203038938742353 -0.020636147377884773 0.0
0.08769719539554144 -0.06 0.0
0.08769719539554167 -0.06 0.04
0.9192992165657531 -0.06 0.04
0.8164681441220105 0.022269284396602723 0.039999999999999994
-0.9103536180674616 -0.021283841161765512 0.04000000000000001
-0.8777357995360431 -0.06 0.0
-0.9096368506350345 -0.020963842829632554 0.0
0.8570647961856006 -0.015388027432140593 0.04
0.7921016077200956 -0.06 0.04
0.8353421249080566 -0.06 0.04
0.7921016077200962 -0.06 0.0
0.4135884955929341 0.06 0.04
0.43891524330526177 8.673617379884035e-17 0.0
-0.7921016077200956 -0.06 0.0
-0.08769719539554144 0.06 0.0
0.14473309882269605 0.06 0.0
0.1726925416005594 -1.214306433183765e-16 0.0
0.11621514710911884 1.214306433183765e-16 0.0
-0.029521960903255984 0.06 0.0
0.0 0.0 0.0
0.17269254160055947 1.1796119636642288e-16 0.04
0.14473309882269625 0.06 0.04
0.0 0.0 0.04
0.2006519843784229 0.06 0.04
0.22806385632140147 -1.1796119636642288e-16 0.04
0.22806385632140147 1.0755285551056204e-16 0.0
-0.6720046167250797 -0.020579604775701428 0.0
-0.7030120427199962 -0.06 0.04
-0.7030120427199952 -0.06 0.0
0.25547572826438003 0.06 0.04
0.30922577824843556 0.06 0.04
0.25547572826437986 0.06 0.0
-0.02952196090325599 0.06 0.04
0.2006519843784232 -0.06 0.04
0.14473309882269605 -0.06 0.04
0.2006519843784229 -0.06 0.0
0.14473309882269625 -0.06 0.0
0.2823507532564078 -5.204170427930421e-17 0.0
-0.36192316205531716 -0.06 0.04
-0.41358849559293387 -0.06 0.0
0.5372746904547943 0.02439300391790418 0.0
0.5139034646412424 0.06 0.04
-0.5139034646412424 -0.06 0.04
0.41358849559293387 0.06 0.0
-0.7171469290115033 0.021165332718839136 0.04
-0.7479973317145417 0.06 0.04
-0.7030120427199962 0.06 0.0
0.08769719539554167 0.06 0.0
0.029521960903255984 -0.06 0.0
-0.02952196090325599 -0.06 0.0
0.02952196090325599 -0.06 0.04
0.02952196090325599 0.06 0.0
0.029521960903255984 0.06 0.04
-0.47805793986482265 0.03008719549728311 0.01940109733029794
-0.4642419910175897 0.06 0.0
0.6103276788742331 -0.06 0.04
1.0 -0.06 0.04
0.9600486361512205 -0.06 0.04
0.9600486361512215 -0.06 0.0
-0.3092257782484355 -0.06 0.0
0.877735799536044 -0.06 0.0
0.8777357995360431 -0.06 0.04
-0.41358849559293387 0.06 0.04
-0.4135884955929341 0.06 0.0
1.0 -0.06 0.0
1.0 0.0 0.0
-0.14473309882269605 0.06 0.04
-1.0 -0.06 0.0
-0.9600486361512215 -0.06 0.04
-1.0 -0.06 0.04
-0.7921016077200962 0.06 0.0
-0.9192992165657531 -0.06 0.0
-0.9600486361512205 -0.06 0.0
-0.7921016077200956 0.06 0.04
-0.7766984080639845 -0.02052537972713625 0.04
-0.5625923446839085 -0.06 0.04
-0.5625923446839077 -0.06 0.0
-0.877735799536044 -0.06 0.04
0.7921016077200962 0.06 0.04
-0.3619231620553172 -0.06 0.0
-0.7479973317145423 0.06 0.0
-0.8777357995360431 0.06 0.04
-0.4135884955929341 -0.06 0.04
-0.46424199101758934 -0.06 0.0
0.513903464641242 -0.06 0.04
-1.0 0.0 0.04
-0.877735799536044 0.06 0.0
-0.30922577824843556 -0.06 0.04
[...]
POINT_DATA 584
VECTORS displacement double
-0.0125347818530135 0.023709555412068744 0.005134890549613076
-0.03700127814451815 -0.010035229411115062 -0.006627497196231682
-0.02472893370803418 -0.006381603024675556 0.0009815409579293692
-0.006522314295270993 -0.02051950806535389 -0.0024986631584249905
-0.013458439109976208 0.009879807551503616 0.0015267955690049073
-0.0075316666590745564 0.02430884720149248 -0.022210330026923616
0.013441836903538312 0.05310090167521007 0.003808752851259373
0.004262239310307424 0.01247813373884023 0.004991838512612166
-0.034974828446897886 -0.004506718260564426 -0.00366238864407097
0.002623415657423265 -0.030782193871594626 0.009167219014479791
-0.008177890131956805 0.1186640640071678 -0.021580137093509127
0.012960622206886839 -0.010291585119836565 0.009388511826275715
-0.0007817593614258818 -0.003552675721673224 -0.002727097753423799
-0.010947202388090299 -0.027319828842811148 -0.009550811989487455
-0.0015847439853895915 -0.012896027636308212 -0.0029740886656373353
-0.008701315976800617 -0.003188372498376847 -0.00015378358532625066
-0.010276405884201171 0.07266208216117324 -0.004062220077325644
0.007745501465181966 -0.02426572721241493 -0.009023436366306634
0.031070712098880997 -0.009472441884978233 -0.013831422427290022
0.010097902549389567 -0.016988567422891142 -0.0010337892307095713
0.0019099106757179745 0.004497179675389713 -0.002160434180747064
-0.005606517916312244 0.0046194125927638404 0.0014270672192174105
-0.006980591836899492 -0.013026781246570685 -0.011243401973275665
-0.032517328295654825 0.03411765793338602 0.016723966240994807
-0.0018538335751249692 0.012898685306635887 -0.0021671092317989125
-0.01663373737972695 0.029991520045621313 0.008510753974173713
-0.0048864542619453085 0.023157468004310098 0.02004491134134567
0.01731932757809217 -0.021126811645627387 0.018037915696263694
-0.015802542269039044 0.011013285820685368 -0.0055058582995257425
0.030253047435787918 -0.0098944637979712 0.0051744883682493786
-0.01630291933682583 0.01522183054817887 0.013765916479089585
-0.028466659137885694 0.0025783649803480975 -0.0012481592207569815
-0.015804788876992958 -0.014497830753419132 -0.0033752799542905543
-0.014649090816683192 -0.009912637961337116 0.006823852400248744
-0.02449646679915643 -0.007715406309638002 0.005014891885993382
-0.040924689804664995 0.018742547113683422 0.0024823941847235643
-0.015575980329815952 0.058985071070585884 -0.029688561943814057
0.03714576257718995 -0.020259290737244667 -0.002973211911699539
0.025627377365581166 0.002918799576429523 0.013121605901674008
0.009786871388548984 0.004125758268331931 0.005089917573419751
0.011759319126458893 0.0004570338374744625 -0.013948152286932034
0.016204619985110948 0.0013650216811732516 0.003324845043418867
0.019932312864881226 -0.013642638142978714 -0.006298701427468311
-0.004018500715636672 -0.07199757093351955 -0.024117802121646888
-0.0020209265856271593 0.012380553994008317 -0.01842233292248112
-0.010601305996878696 0.011605081611164685 0.013308521335520566
0.006901624046266103 0.06849854158111839 -0.03536972642851926
0.007543414403802201 0.035187154192135334 -0.0416282142698782
-0.017638794845909567 -0.007223417091516767 -0.04201428720450444
-0.023907259740915357 0.02926039014399153 -0.016395776075241585
0.013487249794539203 -0.012822318459564915 0.01724191932455135
-0.0139545574494208 -0.02041272353045009 0.013334356782657857
0.01809707368113026 -0.010183170733059585 0.01403372592167993
-0.005661774373894144 -0.018520177462019526 0.008080865706775136
0.00017921168636183372 -0.05642203755441678 0.015146291638669112
-0.015028807583607539 0.012826875810303276 -0.00042828562201562063
0.011657797232864848 -0.00642131320571679 0.0005936384859833812
-0.009242982696520366 0.03969294587614084 0.018135743518796075
-0.00873874023901749 0.019837166230548677 -0.009025903144565065
0.010994810510145626 -0.026312864771114663 -0.01038569217141078
-0.007510803471482201 0.03312857431538923 -0.002576122075825
0.005437405863801524 -0.014693302699414814 -0.0022518830181728626
0.009000433704575282 0.016193538013835006 0.02066450667240823
-0.007509324922421357 0.03632168786061807 0.020942375069428067
-0.01634002671711247 0.023658999476912034 0.005863573458032349
-0.01914287500756535 0.024885718676984976 0.005214152896463979
0.009637481596676233 -0.024267820856805945 0.0073621521818297035
0.015851522724184944 -0.00992678855092002 0.0039235842050843305
0.011333009754580391 -0.006038002563973036 -0.0015189287243750826
0.0033942996962895273 -0.021898077668884987 0.016207326071184486
-0.01268815518897003 0.05799507321832166 0.030913983918079802
0.016663568935836787 -0.004787796207905762 0.0006119194601526299
0.0247450911425112 -0.002709587458557093 0.0160297364576387
-0.003794513050681094 -0.08268994626326433 0.030131964346890527
0.007318942299177501 -0.046323656531005675 0.016738069524315672
0.04470786918497143 -0.002677040956506424 -0.002319692321548244
0.010351107611949364 0.009880323974152562 -0.009858491263358471
0.012108291365539363 0.07979944208994667 -0.03805335018937751
0.015417474252164564 0.023477881323532353 -0.004227004094315978
0.0035444475924951554 0.02735467929426535 -0.02860258460710984
0.0037608785896353645 0.012842737866094649 0.0085495491115563
0.0047674794770637815 0.041706036976765934 0.024138574578446852
0.013259443463247094 0.07268773914549652 0.01985936522472842
-0.010531077360980162 -0.002674723199624449 0.015126151747034237
-0.0004690697264997906 0.005124425353441419 -0.005280017724286865
0.017156044450473494 0.03222790090128584 0.01077307803055152
-0.027331032297044113 -0.03303315658920521 0.015507008443682684
-0.01949696317566667 -0.040333163048641436 0.01690974911234723
-0.006836425668007849 -0.0072977481728710965 0.007458816512010149
-0.0002610503951682053 -0.014546970478896725 -0.0014268081142992802
0.007067831432919199 -0.041988907256579305 0.020376293320674192
-0.01646114599631909 -0.05720450567602939 0.024742676268290603
-0.027535763688738783 -0.0651549383893944 0.02268567961259405
-0.023809622870547283 -0.028990578681184473 0.005464655061780234
-0.010812476734400743 0.002358882558076103 -0.009356509404927769
0.003886579505058505 -0.0006478922755361391 -0.0020414085252074693
0.0037788238346582277 0.002343800346907112 0.0009383081546561562
0.014320629839003639 -0.006865026088294751 0.0038969532868369746
0.0015309117415006194 0.008640772569672899 -0.008037210191684619
-0.023510696948572576 0.040089770368336775 0.005649626340548503
-0.007258642347934111 -0.01834666082349056 -0.0030293393331374953
-0.014190162377467067 0.04483593825851936 -0.004990869946661913
0.007600022508089661 -0.002806787414584455 0.008337182985485928
0.009525168999230015 0.00721262567976121 0.013615864091897046
0.0021677062849194072 -0.000920093705064688 0.010222822831855419
0.005556774739575739 -0.001182912351013855 0.0019936342659016347
0.004121260868919253 0.03860623820045198 0.005785210537179492
-0.004063223546209119 0.06969453837128586 0.017967985458530643
0.011278217676775844 0.011011781614903448 0.005432026935365215
0.023074127957420854 0.020317358646303053 -0.013952487007637803
0.011733474562723474 0.014566184336164018 0.0031374752763779915
-0.006402621748317264 -0.006298261363800115 -0.0013625664243787669
0.006724786217441224 -0.004070470262858307 -2.2685368969915873e-05
-0.018109205621890778 0.030668330886857494 -0.011119230117628744
-0.014105626497046652 0.021519117516081602 -0.004212477198577768
-0.010551141720017245 -0.018236854372449308 0.0020815278303331127
-0.0010117770992542048 0.0028126695581521277 -0.008175457626021506
0.002207662535908189 0.004306439158726785 0.021401573722392424
-0.008480033489311135 -0.012055170910494345 -0.005269021053831406
-0.025001906019224505 -0.030540901035653812 0.01449288063810296
-0.00549267224887857 -0.06979271305078763 0.03161677881586489
0.01453751359663842 0.0038792297140536453 -0.006513299181786612
-0.004865824322309121 -0.031992553448817206 -0.0028802116307461495
-0.0036276291584291563 -0.007778665246649489 -0.014968429117369496
-0.00957458099650061 -0.06630157796303973 -0.034316981468996005
-0.009413445772237392 -0.015062250775767035 0.0037530908204112647
-0.008717736320366558 -0.0016152419420962867 0.0036586726583262516
0.0015845466025031097 0.03598498927528623 -0.00033716737794909024
-0.010685423753071828 -0.014333013109464264 0.0012160524028625402
0.013017678943742186 0.008981514835781454 0.0012391196464249478
-0.0027441237313997886 -0.03719108798921056 0.0085469677615198
-0.0102240974868245 -0.019074190712298038 -0.030522532832391647
-0.0004103522973829829 -0.015889507937983483 0.0010659658633814701
-0.007323759642783987 -0.047883388444184924 -0.02387984834189659
-0.0016488472198832994 0.008862025934775678 0.006874412889387521
0.004602109833085274 -0.06308109060135174 -0.025646252258648517
0.008025880609552151 -0.0066214099778511195 -0.005961583721799317
0.03097921453295436 -0.008440564730181656 -0.013124594600813697
0.012690638938386274 0.0019620684872734967 0.00348512123107475
-0.021290855580746303 -0.03192054708463831 -0.01074501556182961
-0.014736032543715152 0.017729754874281346 1.0586105867087681e-05
0.034305432311664635 -0.06488816293046018 -0.027387167473115787
-0.06613029459568735 -0.010149868683200534 -0.030138772562570602
0.028591366908785283 -0.12716513647512057 -0.010512221282016261
-0.01629354646053735 -0.05129042208555642 -0.022145783501459772
-0.02219931908348906 -0.02753634440650276 -0.0216356287034368
-0.00015309603478652048 0.004400534663555293 -0.00436244210087152
0.005771174800616433 0.011011481376632909 0.006598514877722419
0.005082915670158597 0.016194852962891457 -0.003146413997750504
0.021234252003927794 0.007836054737850694 0.005076042612516251
-0.0032559883312135154 -0.008313506966933346 -0.005761607766624715
0.01839660972668245 -0.029770647225075084 0.012525136861503663
0.00965146304891135 -0.0315940212196291 0.004105189844330263
0.03413434941919604 0.03454260824123535 0.0013764584415170715
-0.02042633293762098 -0.016661339875274392 -0.006573845529841239
-0.006890202050695306 -0.019473552234035504 -0.0015897583981224312
-0.008654103652452031 -0.009061034364140123 -0.0036706180754893674
-0.009029132883653672 0.014366751866915113 -0.0021892608392100076
0.00022765127459088255 -0.0054351601921973 -0.0024778011747169848
-0.012406349027848474 -0.0149183809267838 0.00734880530730902
-0.008908816583015632 0.008898920774515831 0.00259857621078746
-0.008003823886889923 0.010764080421625345 0.012465403895685245
0.011472730336158194 -0.02239894082009187 -0.012139621075212343
0.012952568100041625 -0.0565212568582639 0.023494765045012685
-0.003738385753563329 0.0009882563830378957 -0.009103083575650565
-0.0003015517651679144 -0.0018253129041417302 0.0074513409905216
0.009561359169132963 -0.0007105622555259248 -0.018845371237753702
0.005976633746556529 0.05023468309730885 -0.0218971845348672
0.014807150230988162 0.05290678586827966 -0.020494465933284817
-0.013382580820784055 0.0092811522574525 0.004765789285835075
0.035903164891355165 -0.056712092144206944 -0.013855180947419042
-0.019539648043667392 -0.015444382434844453 0.003851669229253316
0.02355213595257319 0.0066952570557392375 0.029435360716270897
0.00720078090598484 0.021152940876682836 -0.013077179837850759
-0.00477324397142144 -0.027401499095458765 -0.005520054819156544
0.004965273345191145 -0.05055230999985776 -0.020896310558599307
-0.03906785248915727 0.059245183999017244 -0.0037336349219184947
-0.007116094573953442 -0.04683837639667969 0.01758284551588164
-0.02796639483751025 0.04002135259696569 0.011347469472701122
0.0011255153894948878 0.025078773039677458 0.013996688923536586
-0.024087141001975922 0.011904663422043072 0.002221554202710604
0.056662348200368515 -0.00032579861261012227 0.012085990448690935
-0.0473234468042021 0.05741546827457451 0.015550213224757027
-0.04563702193512996 0.10701524577449813 0.009397103244176428
-0.01714097395175528 0.003584444495327804 0.023108414144120692
-0.0244551867805316 -0.041299433867325014 0.015145742650989358
0.0026036575023999434 0.008000633453074458 0.00038140848344883963
-0.008864191085131454 0.040074418129217866 -0.005179575248280091
-0.005462718171200059 -0.013603182603558051 0.0012933509742782791
-0.0058948633887675435 -0.0011952599147868194 -0.0030522612040100195
-0.007374501259439263 0.0004729208045190154 0.0008005381037845347
-0.012250712756034269 0.0005159215623584241 -0.0023841985634424135
-0.0007026101342604626 -0.018834665806489913 -0.0009438024954881829
0.008166467652249878 0.0028556036965173364 0.004955144795183599
-0.010059563024428567 0.0013500830155243448 0.01035271530837887
-0.01053023993710063 0.005215854156551182 -0.0006219828514824081
0.009715869092465135 0.010677623943768942 -0.0012021216007259722
-0.002101300507932103 -0.05997398887154564 0.022290637983057048
0.01637916272950379 -0.004935852376427165 0.017171748651815665
0.007838168379724278 -0.0030914252169069816 -0.005467647371011934
-0.004621778565030295 -0.00040682095812153395 -0.0013527819379958348
0.008050107102074293 -0.034705918528151275 -0.012029057326792679
-0.001732017376084642 -0.018018017547747976 -0.008973872883757204
0.00775963823131168 -0.022170678365684884 0.006380082069799943
-0.008012008069027906 0.07976838581302546 -0.03479988692195356
0.004571649341869033 -0.01106671371172261 0.0013883901968864563
0.010129542700059557 -0.0385934800752619 0.019434618805395282
0.0013030496969061414 0.07228639935265695 0.01877682077870903
-0.013396535636116374 -0.007677051010278567 -0.00014979331806545208
-0.008318985682496964 0.03951510516933077 0.009297175196356651
-0.012910380447453393 -0.0006225580414273646 -0.001530588284104285
0.016633414358856707 0.0040757154128970895 -0.0022495912304360765
0.0012697918934149932 0.05996252681291808 0.02409773159830056
-0.01046110579771388 -0.022335170198377725 -0.00228641843719305
0.015176747933839434 0.0030678374953671235 0.003524602668801767
0.023894809894738762 -0.012895267033336948 -0.005787294899733315
0.023763240970913722 0.0036654843990068654 0.005094926522069119
-0.01137678974868406 -0.027846032337916042 0.008945831860006241
-0.003996409235346313 -0.010347400529465757 -0.009490032761901477
0.01204067104095752 0.04468122613152942 -0.013079699822427732
0.00449087012876771 0.01036383300332096 -0.0020032708745761647
-0.0011660398469081328 0.02619712650157837 -0.005701989484868171
0.004384515934534392 -0.01402851617835884 -0.005402238542344478
0.013999594303510481 0.005016333698139423 0.007002376925779667
0.0049798746406133215 -0.026328269604166298 -0.007170545827552727
0.008205704832497307 0.012591142013043814 -0.007527709335686292
0.005855474438151797 0.026182898325754357 -0.011042665357844966
-0.003165846335409785 0.015867820097942395 -0.0053288059630465
-0.01061217069866902 0.011783452483236019 -0.012219063191505182
-0.010114117929800234 -0.03906978642665845 -0.03485733154054365
0.1340317379206953 0.015252844733777644 -0.01165630068725482
0.04642450627155067 0.049842644029023025 -0.055521365809928724
0.08560042136494922 -0.03423339964529418 0.014067413697831562
-0.0022355086945181177 0.016246351352107717 0.005271410294038555
0.001850251716270669 -0.028972259873417096 0.010172163611760765
-0.05356150387791442 -0.015658169122151053 0.003989088164524385
-0.005921364519628014 0.03682869329068786 -0.017121635816956297
0.0001520950925861321 0.018227015426014948 -0.004862344978753535
0.14707526853133418 -0.003033993459689939 -0.00326606664824891
-0.052312592611671184 -0.0009242854867383769 0.001794347613210674
0.0028783787034043283 -0.015375673954558442 0.002738530110535778
0.03080499079559423 -0.05787588337086923 -0.019316029978681034
0.016325430439624193 -0.02504393092800442 -0.007114427296130029
0.029815199824456236 -0.12475866969444292 -0.02584269322658378
0.009653872415451278 0.0010721283803914405 0.0030820118938737324
0.004885794436142757 0.018252960137159307 0.014219148641096429
0.018193057253884034 -0.01625534324687758 -0.001649919351271128
0.01755607259375498 0.01657363249205999 -0.002342420840506492
0.00770063516015446 -0.05976866023239249 0.0055781379255862885
0.013464623083103188 0.055064204998844755 0.03137558070283388
0.004687496739973565 0.026853360705105817 0.004702744590675338
0.0001101148021404207 0.05140483783865345 0.021358246805589703
-0.0008726996921738397 0.0027843928694218987 0.0205269325768049
-0.006759455953041432 0.03421486249295111 0.012875174313890467
0.006459760438176315 0.02030377902892383 -0.007908393005672684
-0.00733117497913754 -0.01614626522440657 0.01927267167781315
-0.0208542528251931 -0.04001235457987841 -0.01730336084864661
0.00012211603635834187 -0.027616052791651264 -0.018526912122183672
-0.00011966021224105808 0.017454722154988552 0.005070169868441908
-0.025686065225837024 0.03726939270373695 -0.01808945282683833
0.0016514295611423067 -0.008397392584557354 0.01386807802609081
0.004228682268796683 0.03867316417473277 0.01861388440767457
0.006223957677358981 -0.004239139859279868 -0.005649271998171558
-0.0008831241962900609 -0.02529287496895094 0.010376151072183823
0.0030580264336463937 0.008786420118647496 0.00033145454240375924
-0.002606034163646297 -0.0012774197543295983 -0.0023445722755902837
0.020440346271094197 0.045345959747031615 -0.014769647348282733
0.001874212485996426 0.03226680842640388 0.011947647082640242
-0.008575606578508754 0.010408881405150693 -0.00450902756420788
-0.019043074869368456 -0.002983081890978684 -0.0034906826540258415
-0.019372473346762092 0.019668969951753767 -0.033108861348566394
0.04168517515194398 0.044680786984539055 -0.014434340457565342
0.004137727247875742 0.02140192509200148 -0.003891224251020884
-0.006264964972959239 0.046942231832173484 -0.021185522488735405
0.003245775428241555 0.01527207613739047 -0.002093390100259576
-0.0026756565515013136 -0.021303101998852773 0.0010613319526550067
0.005669543742879696 0.057120796613595405 -0.017837059841151234
0.00915904231357438 0.012919682291656565 0.006339940096351121
-0.0036934849174494336 0.050146209307418414 0.02036374883182195
0.012971643431274806 0.0012360467176482268 -0.008037471677642096
-0.007806115188153579 0.06744334915300237 -0.027038681720642548
0.007406586143534325 -0.017843505407149008 0.014873454384918178
-0.02588845526224564 -0.01679703345948413 0.00900324519910303
-0.02360175368180781 -0.02180082987068735 0.011519265639433411
-0.00536826027420197 0.002442860244611534 0.012867633086260644
0.024630073520428755 0.0026117933333130172 0.012495923722600758
0.018791151957040324 0.03456443055194006 -0.024140351849721627
-0.009824647753994584 0.033232067481038186 0.006176014103358926
-0.002843973138363472 -0.005612135483369102 -0.012555283363445966
0.007267991174089259 -0.047164795720809664 -0.020086426158128882
0.011160056335012141 -0.026510737242276372 -0.0059377686486988554
0.0006639821699679398 -0.034552831781197356 0.006079576325576989
0.026020741981606414 0.03241273600607197 -0.01597267786221096
-0.018384746276715633 -0.0583957805122898 0.005326564274641237
-0.0023322904885569873 0.002912313022189417 0.01844406940485118
-0.0029501918552152385 0.03549471014773117 -0.010965347093228618
-0.013573742558505965 0.001231563398833444 0.013915775034411267
0.01686877074276404 -0.0179291445923362 -0.010332709251960535
0.007512352160666521 -0.02630302589008 -0.02075298026025633
-0.0033830224208929983 -0.00794423886772713 0.005985124922289576
0.011644895987048796 -0.05165459500897313 0.02012043334128057
0.006228720538358322 -0.01746021694745978 0.01618487541602355
0.025685878997282835 -0.08690308704094153 -0.03052556303732924
-0.018689469058248337 0.07239241435876527 -0.01713666782010929
-0.008995070159054808 -0.018947203364884667 -0.025588914075201825
-0.01984384319073199 -0.012057590079287922 0.0019391142682168305
0.007720598518976688 0.03750621855172792 0.005643435606122011
0.0172108805552433 0.028823426756104855 0.0149806100513863
0.026337066770008893 0.06392595557257778 -0.024064632411500076
-0.011574833565515563 0.021563589072997637 -0.016493782501044447