# vtk DataFile Version 2.0
Really cool data
ASCII
DATASET UNSTRUCTURED_GRID
POINTS 584 double
-1.0 0.0 0.0
-0.9600374798207896 -0.027590413451835553 0.04
-0.9589620457797374 -0.028177574718636023 0.0
-0.9553815213922792 0.019675326217199102 0.04
0.6719637381218919 0.02110482676547816 0.0
0.6414775595248179 0.020020515529780993 0.04
0.6571281419012174 0.06 0.0
0.6240641012293764 0.022292119262118645 0.0
0.687851041884645 0.021313940245698455 0.04
0.7030120427199962 0.06 0.04
0.657128141901218 0.06 0.04
0.7030120427199952 0.06 0.0
0.6885310613992013 -0.0196061899732657 0.0
0.6720046167250797 -0.020579604775701428 0.04
0.6407079554435648 -0.019738458112036637 0.0
0.7171469290115033 0.021165332718839136 0.0
-0.7921016077200962 -0.06 0.04
-0.7604373514312079 -0.019298436119384588 0.0
-0.7479973317145423 -0.06 0.04
-0.7479973317145417 -0.06 0.0
0.7030120427199962 -0.06 0.0
0.7030120427199952 -0.06 0.04
0.6571281419012174 -0.06 0.04
0.7479973317145417 -0.06 0.04
0.7325903506195701 -0.020274227246539274 0.0
0.7176321617908783 -0.019839353713154383 0.04
0.7604373514312079 -0.019298436119384588 0.04
-0.8488906624897727 0.019856366527450334 0.04000000000000001
-0.8052789150181434 -0.019306901564895652 0.0
-0.805541091654972 0.020469431563422978 0.04000000000000001
-0.8203038938742353 -0.020636147377884773 0.04
0.897529295217204 0.022569895749215793 0.0
0.8488906624897727 0.019856366527450334 0.0
0.8569454102823642 0.029774901726562965 0.04
0.8777357995360431 0.06 0.0
0.9553815213922792 0.019675326217199102 0.0
0.95349853104827 0.02147987272312249 0.04
0.9103536180674616 -0.021283841161765512 0.0
-0.5450807564691462 -0.01715484187473429 0.04000000000000001
-0.5372746904547943 0.02439300391790418 0.04
-0.49049502097572617 0.000359712426279548 0.04000000000000001
-0.5409244119327052 -0.005150142234760652 0.0
-0.48901428549955095 -0.02776609156780287 0.019771763033692314
-0.4642419910175897 -0.06 0.04
-0.43891524330526177 8.673617379884035e-17 0.04000000000000001
0.7479973317145423 -0.06 0.0
0.9600486361512215 0.06 0.04
1.0 0.06 0.04
1.0 0.06 0.0
0.9192992165657531 0.06 0.0
0.7479973317145423 0.06 0.04
0.7309057796957548 0.02177174945441851 0.039999999999999994
0.7479973317145417 0.06 0.0
0.7613659684934695 0.020945326906433456 0.0
0.7736855084518748 0.020914979208800512 0.04
-0.8570647961856006 -0.015388027432140593 0.0
-0.8569454102823642 0.029774901726562965 0.0
-0.8649535140731797 -0.02016838668923704 0.039999999999999994
-0.1726925416005594 -1.214306433183765e-16 0.039999999999999994
-0.22806385632140147 1.0755285551056204e-16 0.039999999999999994
-0.2006519843784229 0.06 0.0
-0.22806385632140147 -1.1796119636642288e-16 0.0
0.438611990705585 -5.252150912499892e-05 0.04
0.41358849559293387 -0.06 0.04
0.4135884955929341 -0.06 0.0
0.4642419910175897 -0.06 0.0
0.4782715374234063 0.0302584611690398 0.019894876072988572
0.513903464641242 0.06 0.0
0.49049502097572617 0.000359712426279548 0.0
0.46424199101758934 0.06 0.0
0.46424199101758934 -0.06 0.04
-0.8164681441220105 0.022269284396602723 0.0
0.48912437490067595 -0.00041996788971368666 0.04
0.4642419910175897 0.06 0.04
-0.8353421249080566 0.06 0.04
0.8649535140731797 -0.02016838668923704 0.0
0.8973163514988121 0.02144006532192878 0.04
0.5625923446839085 0.06 0.04
0.6103276788742331 0.06 0.0
0.5943416245309461 0.018901239582525348 0.04
0.5790918012159274 0.021628695864523574 0.0
-0.593631917725493 -0.01946781888421301 0.04
-0.6103276788742336 -0.06 0.04
-0.6407079554435648 -0.019738458112036637 0.039999999999999994
-0.6264545933043166 -0.021459100211208025 0.0
-0.6103276788742331 -0.06 0.0
-0.6103276788742336 0.06 0.0
-0.6240641012293764 0.022292119262118645 0.04
-0.6414775595248179 0.020020515529780993 0.0
-0.5943416245309461 0.018901239582525348 0.0
-0.5790918012159274 0.021628695864523574 0.04000000000000001
-0.5625923446839077 0.06 0.04
-0.6103276788742331 0.06 0.04
-0.5625923446839085 0.06 0.0
-0.7325903506195701 -0.020274227246539274 0.039999999999999994
-0.7176321617908783 -0.019839353713154383 0.0
-0.7309057796957548 0.02177174945441851 0.0
-0.7736855084518748 0.020914979208800512 0.0
-0.7613659684934695 0.020945326906433456 0.04
-0.6571281419012174 0.06 0.04
-0.6719637381218919 0.02110482676547816 0.039999999999999994
-0.7030120427199952 0.06 0.04
-0.687851041884645 0.021313940245698455 0.0
-0.029521960903255984 -0.06 0.04
-0.05860957814939871 -6.938893903907228e-17 0.039999999999999994
-0.05860957814939863 5.898059818321144e-17 0.0
-0.08769719539554167 -0.06 0.0
-0.08769719539554144 -0.06 0.04
-0.2823507532564078 -5.204170427930421e-17 0.04
-0.25547572826437986 0.06 0.04
-0.25547572826438003 0.06 0.0
0.38751191920162714 6.938893903907228e-18 0.0
0.3352618020299945 -3.469446951953614e-18 0.0
0.36192316205531716 0.06 0.04
0.3619231620553172 0.06 0.0
-0.36192316205531716 0.06 0.0
-0.335244821032008 -1.1796296425746478e-06 0.0
-0.3352618020299945 -3.469446951953614e-18 0.039999999999999994
-0.38745316199969926 -7.894682722445895e-06 0.0
-0.3619231620553172 0.06 0.04
-0.3092257782484355 0.06 0.04
0.28235075325640757 5.551115123125783e-17 0.039999999999999994
0.30922577824843556 -0.06 0.0
0.335244821032008 -1.1796296425746478e-06 0.04
0.3092257782484355 -0.06 0.04
0.36192316205531716 -0.06 0.0
0.38745316199969926 -7.894682722445895e-06 0.04
0.3092257782484355 0.06 0.0
-0.38751191920162714 6.938893903907228e-18 0.04
-0.28235075325640757 5.551115123125783e-17 0.0
-0.30922577824843556 0.06 0.0
0.6103276788742336 -0.06 0.0
0.593631917725493 -0.01946781888421301 0.0
0.6264545933043166 -0.021459100211208025 0.04
0.4889627886584896 -0.027603176797077415 0.020155725176282127
0.583287522480325 -0.023728770665855194 0.039999999999999994
0.5450807564691462 -0.01715484187473429 0.0
0.5409244119327052 -0.005150142234760652 0.04
-0.48912437490067595 -0.00041996788971368666 0.0
0.3619231620553172 -0.06 0.04
-0.657128141901218 0.06 0.0
0.9600374798207896 -0.027590413451835553 0.0
1.0 0.0 0.04
0.9589620457797374 -0.028177574718636023 0.04
0.5625923446839077 -0.06 0.04
0.5625923446839085 -0.06 0.0
0.7766984080639845 -0.02052537972713625 0.0
-0.438611990705585 -5.252150912499892e-05 0.0
-0.583287522480325 -0.023728770665855194 0.0
-0.9600486361512215 0.06 0.0
-0.95349853104827 0.02147987272312249 0.0
-0.9192992165657539 0.06 0.0
-0.9192992165657531 0.06 0.04
-1.0 0.06 0.0
-0.14473309882269625 -0.06 0.04
-0.14473309882269605 -0.06 0.0
-0.11621514710911887 -1.214306433183765e-16 0.0
-0.17269254160055947 1.1796119636642288e-16 0.0
-0.14473309882269625 0.06 0.0
-0.11621514710911884 1.214306433183765e-16 0.039999999999999994
-0.8353421249080566 -0.06 0.0
-0.8353421249080575 -0.06 0.04
-0.8973163514988121 0.02144006532192878 0.0
-0.897529295217204 0.022569895749215793 0.04
0.11621514710911887 -1.214306433183765e-16 0.039999999999999994
0.05860957814939871 -6.938893903907228e-17 0.0
0.05860957814939863 5.898059818321144e-17 0.039999999999999994
0.08769719539554144 0.06 0.04
0.6103276788742336 0.06 0.04
0.5139034646412424 -0.06 0.0
0.9096368506350345 -0.020963842829632554 0.04
0.805541091654972 0.020469431563422978 0.0
0.8052789150181434 -0.019306901564895652 0.04
0.8203038938742353 -0.020636147377884773 0.0
0.08769719539554144 -0.06 0.0
0.08769719539554167 -0.06 0.04
0.9192992165657531 -0.06 0.04
0.8164681441220105 0.022269284396602723 0.039999999999999994
-0.9103536180674616 -0.021283841161765512 0.04000000000000001
-0.8777357995360431 -0.06 0.0
-0.9096368506350345 -0.020963842829632554 0.0
0.8570647961856006 -0.015388027432140593 0.04
0.7921016077200956 -0.06 0.04
0.8353421249080566 -0.06 0.04
0.7921016077200962 -0.06 0.0
0.4135884955929341 0.06 0.04
0.43891524330526177 8.673617379884035e-17 0.0
-0.7921016077200956 -0.06 0.0
-0.08769719539554144 0.06 0.0
0.14473309882269605 0.06 0.0
0.1726925416005594 -1.214306433183765e-16 0.0
0.11621514710911884 1.214306433183765e-16 0.0
-0.029521960903255984 0.06 0.0
0.0 0.0 0.0
0.17269254160055947 1.1796119636642288e-16 0.04
0.14473309882269625 0.06 0.04
0.0 0.0 0.04
0.2006519843784229 0.06 0.04
0.22806385632140147 -1.1796119636642288e-16 0.04
0.22806385632140147 1.0755285551056204e-16 0.0
-0.6720046167250797 -0.020579604775701428 0.0
-0.7030120427199962 -0.06 0.04
-0.7030120427199952 -0.06 0.0
0.25547572826438003 0.06 0.04
0.30922577824843556 0.06 0.04
0.25547572826437986 0.06 0.0
-0.02952196090325599 0.06 0.04
0.2006519843784232 -0.06 0.04
0.14473309882269605 -0.06 0.04
0.2006519843784229 -0.06 0.0
0.14473309882269625 -0.06 0.0
0.2823507532564078 -5.204170427930421e-17 0.0
-0.36192316205531716 -0.06 0.04
-0.41358849559293387 -0.06 0.0
0.5372746904547943 0.02439300391790418 0.0
0.5139034646412424 0.06 0.04
-0.5139034646412424 -0.06 0.04
0.41358849559293387 0.06 0.0
-0.7171469290115033 0.021165332718839136 0.04
-0.7479973317145417 0.06 0.04
-0.7030120427199962 0.06 0.0
0.08769719539554167 0.06 0.0
0.029521960903255984 -0.06 0.0
-0.02952196090325599 -0.06 0.0
0.02952196090325599 -0.06 0.04
0.02952196090325599 0.06 0.0
0.029521960903255984 0.06 0.04
-0.47805793986482265 0.03008719549728311 0.01940109733029794
-0.4642419910175897 0.06 0.0
0.6103276788742331 -0.06 0.04
1.0 -0.06 0.04
0.9600486361512205 -0.06 0.04
0.9600486361512215 -0.06 0.0
-0.3092257782484355 -0.06 0.0
0.877735799536044 -0.06 0.0
0.8777357995360431 -0.06 0.04
-0.41358849559293387 0.06 0.04
-0.4135884955929341 0.06 0.0
1.0 -0.06 0.0
1.0 0.0 0.0
-0.14473309882269605 0.06 0.04
-1.0 -0.06 0.0
-0.9600486361512215 -0.06 0.04
-1.0 -0.06 0.04
-0.7921016077200962 0.06 0.0
-0.9192992165657531 -0.06 0.0
-0.9600486361512205 -0.06 0.0
-0.7921016077200956 0.06 0.04
-0.7766984080639845 -0.02052537972713625 0.04
-0.5625923446839085 -0.06 0.04
-0.5625923446839077 -0.06 0.0
-0.877735799536044 -0.06 0.04
0.7921016077200962 0.06 0.04
-0.3619231620553172 -0.06 0.0
-0.7479973317145423 0.06 0.0
-0.8777357995360431 0.06 0.04
-0.4135884955929341 -0.06 0.04
-0.46424199101758934 -0.06 0.0
0.513903464641242 -0.06 0.04
-1.0 0.0 0.04
-0.877735799536044 0.06 0.0
-0.30922577824843556 -0.06 0.04
[...]
POINT_DATA 584
VECTORS displacement double
-0.030644727020914607 -0.0006093350141774251 -0.006477917034563026
-0.015377394533905889 -0.0010945548961083052 -0.0005656152815215373
-0.019810180626828478 -0.0007248408699598069 -0.012830579695780168
-0.028778286624878698 -0.014160163784355768 -0.003212626672669831
0.015915887822002303 0.010125383140946027 -0.0134153583947506
0.029905368810319518 0.011751013850239732 0.003615807080608953
0.008853639802496226 0.028576205432881842 0.006372742376652061
0.02457984067208246 0.013515964525949333 0.0250373914482298
0.02046512083610359 0.0010197422991234742 -0.03198146105089924
0.0063044145628932385 0.006282998203752533 -0.02608661045577246
0.013395788174317642 0.018597810109600436 0.0015034137259558216
0.0009347207386237934 0.021370948539939514 -0.02469727060621914
0.010074348879455616 -0.012414329920435537 -0.02813849886374951
0.02016990219432785 -0.0085974519720729 -0.019840266985710814
0.018883428653580326 -0.001869635857048295 0.011227837714140508
0.008327781928766828 0.01136175631756789 -0.04431992546327411
0.0029072663204212468 -0.018886073762125703 0.016033742643456764
0.007092338642362784 -0.013560419446819759 0.0377966314472242
0.006874770390166415 -0.008108952062120712 0.03539584720027728
0.01012838727204204 -0.013223191874731704 0.044108625781885465
-0.022303860763754395 -0.02735009781797379 -0.032936641704782194
-0.017686036763804168 -0.009854466722207564 -0.013996720669236344
0.0064276156988669194 -0.025494673667712787 -0.003881734062655922
-0.032734942878709844 -0.009649629177861092 -0.04084092171780295
-3.1058374332149845e-05 -0.009579537777841924 -0.050712809045978496
0.009650962787586733 -0.012164241586133853 -0.04432070873152587
-0.0029719524689620575 -0.005478959150675442 -0.04991383827491699
-0.024991167807143423 0.009968063127957736 -0.005416350371421661
0.007131013962734094 -0.0040470474645590586 0.016752271281102463
-0.019842577977875375 -0.001924249227401477 0.008638502513248738
0.0017897771532421457 0.0016159538345139513 0.00469041942341866
-0.028151018428936046 0.0012628316394860926 0.0007493013109551855
-0.014043764476674525 0.0020728307696092204 -0.016824675533265724
-0.011178889681788593 0.0029422336968632085 -0.005197528569915187
-0.005352186991257109 0.006383872121729378 -0.0012125552384740076
-0.046179043082473045 -0.0007142202324301708 0.0005286995319220522
-0.035601859255672635 0.002592641045693622 0.0048018687860923335
-0.029202016756256405 -0.01891164506900721 0.007082219837288324
0.01711084540532894 0.011251513792996853 -0.03539863938910115
0.017607303226574365 0.0037959408326356013 -0.031088507277464185
0.011356166550787798 -0.015434421926282636 -0.021716534647866048
0.010855157806182812 0.0077223611724306085 -0.04322604771117128
0.011815188559419184 -0.006983852886371014 -0.02830650011258594
0.014748171210550725 0.019303589708793523 -0.0030638282600345935
0.009164353298399135 0.0083043616322595 0.0012649864781989172
-0.034745730638659246 -0.014382738369354496 -0.04677111896227768
-0.01031342872884807 0.002313232225914668 0.005296788174823531
-0.011917585317626501 0.015104857845145097 -0.00631929351894717
-0.025327178054075358 0.01631330511322177 -0.008906575557148145
-0.014004742210574636 0.0025300041350258986 0.007683912254412391
0.00523888115332088 -0.0015482880995086436 -0.03002602911083424
0.009249738428929198 0.01551751999595352 -0.046579352909058284
0.00011888146220096087 0.014670358081525118 -0.044643505415775865
-0.0016693153573624155 0.009369671419238005 -0.05521396827000846
0.00017136236029232363 -0.0025249043452728152 -0.04327580493195724
-0.003298717945224386 0.013155085030976232 -0.006292512650665313
-0.02214735495462929 0.015354512338862215 0.0002221044446494591
-0.008753167269518048 0.0013701078680478501 -0.012761476652682804
-0.024897248361599816 -0.004936940455419114 0.0018634315760060632
-0.015583809299596928 0.003249808293926153 -0.01691675751197344
0.003782337274737545 0.025555006872218365 0.002066185091288206
-0.011507609965006917 -0.0014767926942665915 -0.00023733437948175818
0.028599405138618562 0.0013211322460993753 0.001182389854916726
0.0445555090620375 -0.01172295597023241 -0.001219618000937395
0.05092609832343929 -0.016416240160792604 0.010517978773205932
0.051073108291169775 -0.02396444870806698 0.0271130943843294
0.010065187244554975 0.010475641025011225 0.019112153641951266
0.005107640997824004 -0.0020552974366361046 0.04683122572093048
0.03569026298206925 0.0035467364289255444 0.03752227542173844
-0.00032154259699149543 0.009348337862295891 0.013485000034972947
0.04193656860734488 -0.026009410254045254 0.00878137675259619
-0.018490821647457932 0.0003764686745535448 0.012434383760150063
0.028693093283479045 0.0007813561821665508 0.020533331563765973
-0.001080290397124877 0.03861749200772597 -0.008476703672380837
-0.012711295042500511 0.012734920805336126 -0.0020897454818388558
-0.014444478516861746 -0.00706491159721034 -0.010249883085079983
-0.017940551434959238 0.006342015621307421 0.00777467092352635
0.005250554083661271 0.04447418202723826 0.05014541368429802
0.006083055069178334 0.018363381838724848 0.05003823380026951
0.023485790162232678 0.005830070019615136 0.030419519081008223
0.032558944216714215 0.023579472526017716 0.055243803718157534
0.01934470468880997 0.01030325944428657 -0.02527137763168283
0.024066750130357438 0.011155285997981683 -0.019135495890015244
0.013611780059539742 -0.0012741030453363978 -0.00023802995878201673
0.006246915045681423 0.007436335097672307 -0.0075544780317962105
0.013539278950528862 0.017119232825104313 -0.023111839043755387
0.019140980946605973 0.0063860166589349895 -0.011819739256668075
0.01263253310863614 0.00039088047369653233 -0.006046071581635017
0.0007603944914365476 0.00467929232319651 0.007615488927232755
0.004889192265926746 0.011524340952201579 -0.02413379131586794
0.014794148993900028 0.006187217165099022 -0.02468481765262918
0.0391743059086834 -0.011621036202807336 -0.02367928155280273
0.030076481491190063 -0.001051832553747298 -0.007338943715820127
0.020829503474135008 -0.007226914436164416 -0.041092925870208324
0.010461485808120568 -0.005083275760675069 0.031479260813184445
0.009944446467564354 -0.009800441279724221 0.04180977057342909
0.003942108383537033 -0.007972280248131406 0.03603049908954494
-0.010039970840882912 -0.014963244488700305 0.027197607373793113
-0.007732887904304859 -0.00393674371491662 0.020260741449555964
0.0300531346461457 0.002737213103791701 0.0166784658609645
0.005652241159937659 0.009127971794251327 0.019202467218924955
0.022696401854514128 0.02239807290855786 0.02945583846344559
0.0006151337552980279 0.011605045708441002 0.033202082696794845
-0.015211197280529823 -0.002821361579341021 0.013657531319290855
-0.026609018266434394 0.001382883321998102 0.033545979645993
-0.03873357343785869 0.0034031552998713163 0.03985364237520174
-0.022722728048599046 -0.018899852491168774 0.05077993557365925
-0.01826345905856061 -0.018595852731446 0.039667789296096545
-0.010460584165684031 0.0030783571838758766 -0.007956099968122564
0.009916621678111663 0.017178816136908432 -0.0073198021127535194
0.010422263800852288 0.02476581094319107 0.001043651077812325
0.02576980356698191 -0.012933434875276248 0.001791552810288105
0.02305261043981011 0.008143190266160324 0.0037894325518853045
-0.00831942568334607 0.017794846122499285 -0.0085617338239774
0.0012837110451950342 0.010747668381598931 -0.005690466850635978
0.027226632294681682 0.0063339339930035 0.014501616604588558
0.003952629706080463 0.017362704846572846 0.0047113148207984686
-0.0028863204147700906 0.011316389628561201 0.007990787813965576
0.010847535424078677 -0.0028113406458892876 0.004864317772408683
0.024658999380529904 -0.001421307511342912 0.02316695949375978
0.01711700682305293 0.013532362310224732 0.013390517220209409
0.007652653762830239 0.005691114343941695 0.013547701043460916
0.030222651160068503 0.014309141677418358 0.00263251602190885
0.012676379242836223 0.006073399806121791 0.0006033063314360479
0.023299572934669888 0.008041373941895247 0.0022135171272965977
0.03497898939060096 0.013110275503360113 -0.002270669974256401
0.021377051037593003 -0.011384595436393662 -0.004096089388950816
-0.004377442854595324 -0.010187009897826404 -9.969850190283084e-05
0.0053042089493382195 -0.0075588437422222 0.013896240824662988
-0.001788486343746642 0.007163156365867801 -0.0016941943168488822
0.02133514841862731 0.02542953510716238 0.011752171525616731
0.021758736072807917 -0.02694789281760641 0.03228904962323802
0.026982056161288657 -0.013163027513941512 0.04181415744299002
0.02383329759970658 0.00307139351038272 0.008372990130626645
0.039616485705622775 -0.008839237473487896 0.03163002198748162
0.029150469770630516 -0.0290929024343992 0.027288578161961084
0.03571183890979835 0.014534849729424903 0.05625564580912608
0.03848173375618967 0.021951420823028273 0.03825042781925591
0.01009201910593843 -0.016376421602149745 -0.036511718538283756
0.03138320754777136 0.01636143132707009 -0.00866363505595826
0.01753615466252757 0.0037045664318927063 0.017181040074450808
-0.036159366836912725 -0.018628876930463802 0.006704291492607403
-0.045551118569699345 0.02951933001506534 -0.013987550447134874
-0.027982258321289675 -0.011758570764403942 0.009602857282713794
0.023990705003869645 -0.024945044984435602 0.030727239913630564
0.022448810338757775 -0.016373173393030627 0.041704053167105494
-0.008570070991514939 0.0012192059160050363 -0.05761161875761866
0.011983223799041294 0.0021187345328916546 -0.01595009039860416
0.010783825124387787 0.016708212720728564 -0.03271890297360052
-0.02582493082477715 -0.037777257317612355 -0.015574942050728898
-0.030957331423915015 -0.016481161531455693 -0.012395904352571145
-0.015360589007619245 -0.004003905324280793 -0.010654945012004579
-0.01075120984633581 0.0028130285257239045 -0.010319525527172628
-0.037197605595447186 -0.016830647184306706 -0.008615860928272025
-0.017434833416116992 -0.030841294376441824 0.02865310363127314
-0.014986830971462792 -0.040200045839247446 0.048797533360125774
-0.027560390747665107 -0.007258675892653787 0.04909451395709846
-0.02040962443362168 -0.013145642923357565 0.018750681513901763
-0.00713294919018693 0.015855315988447912 0.026386809374443453
-0.02654090386977921 0.0016432583857387752 0.02761740652356712
-0.0005537983107812716 0.0221833721816104 -0.0033358166711854125
-0.007608299521871212 0.020956908677503397 -0.01016153141466957
-0.020741937460022845 0.003751646227612017 -0.011830344622872213
-0.03032454606410194 -0.006301688722350688 -0.009551556995624667
-0.01909264656156497 -0.005191300878015655 -0.03452666338691262
-0.03288707280370183 0.006449794749129505 -0.041169185007621956
-0.028230487499884476 0.0020328246266569238 -0.028774562360983424
-0.011090370306290624 -0.02077513382842573 -0.04096275888962421
0.009577267415291286 -0.00529868037319053 0.035647312643312654
0.046233944785245056 -0.010980426421266435 0.04404441853769279
-0.02311737195000737 -0.017232395391627825 0.014570773643569662
-0.006934154697929383 0.008312576897377444 -0.042218997518730955
-0.006297110247017364 0.0010311729849067763 -0.03524464043980298
-0.01120723861546895 0.005454340333077786 -0.03960146773288903
-0.010349650336017637 0.025647528775250592 -0.04717858524511987
-0.007631320626894354 0.025598765451671366 -0.03782163834971192
-0.06243622150715984 0.006263179546734448 0.024544742353288348
-0.008084576752127507 0.00755218566732192 -0.026128049933868885
-0.012747249482662197 0.009510218421710511 -0.0140966337893009
-0.012624105201284078 0.013330628466122346 -0.022560447274109344
-0.01159712596328229 0.013498604898386125 -0.01901830647516977
-0.008797834615622483 -0.0018838072485777898 -0.008351609341743315
-0.04508095649424624 0.013891717511427534 -0.03521838334989689
-0.05275558713143235 0.013645403486825813 -0.012182147841358562
-0.038526660664530595 0.010068408364109865 -0.04909788673427131
-0.01084975238906475 -0.010457289018604555 -0.010522963112257474
0.034498445368124075 -0.005550569007082944 0.011308796367761264
0.007209602066467814 -0.014906565740745552 0.02069802089169674
-0.011924712098792865 0.02043246482868394 0.04828763278535605
-0.012035325422921007 -0.046670009137250036 -0.0591063792320453
-0.006028077503499205 -0.012965683158420463 -0.028809248910811457
-0.020526668073729323 -0.012476959985876135 -0.04648680056587018
-0.02301945190157974 0.01882960724588669 0.031449356741708664
-0.04132285658376826 0.014126901043965266 0.002107843696623676
-0.011568200228035522 -0.0014983701133237071 -0.01013108487736267
-0.014529043365415818 -0.03419454866015927 -0.03804909868815053
-0.03137493514030768 0.005552474667796023 0.004025993748116362
-0.015396304036896905 -0.0251683296506539 -0.009874783126633677
0.000439770808297047 -0.0032071457478342743 0.012028958959409438
0.0020608689673821535 -0.006841904732583213 -0.0021973619725029806
0.007776324381314322 -0.004765682508767352 0.023622536009541107
0.012333028282757147 -0.01012390246033491 0.031062250151098113
0.01138663576121055 -0.009307688257397367 0.03469666597930795
-0.012220247414002242 -0.019991395251055793 0.0101916428312535
-0.004868824478934443 -0.012800759227356353 0.010749548353201672
-0.010931081727564055 -0.02241289866823613 -0.0004983059703311898
-0.013640686695410688 0.010153292327323241 0.031116118868529705
0.012746798203795545 0.0340770707442992 0.008638900074395843
0.0011814456770725273 0.020019575023798312 -0.01485207275740072
0.012344872604755485 0.02637126174650237 -0.002970461861036103
0.003936267608687201 0.014038934256268457 -0.031265658829531855
0.011357956157005064 0.003763530678927401 0.005545741265590669
0.003055917645087524 -0.00045019748424394735 0.005345688970716678
0.010501127855407556 0.013924192402035419 -0.004199156232814844
0.041155875942999964 0.018470339477826943 0.04844835546182361
0.002061953272182347 -0.024765458052957164 0.03750352794466534
0.009801612828614203 0.004403117440640934 -0.023456429164560935
-0.002833499224318107 -0.01697474781021323 -0.005431962656423828
0.0077053178538528605 0.011128663953917694 0.026322011603262054
0.011898448346318992 -0.02009681541183801 0.013290016257283706
0.018547974578101215 0.01867302007187586 0.034554065377796775
-0.019273196385162214 -0.026051195789889396 -0.05834761326704896
-0.026412147317067338 0.024423702652056775 -0.02795360169167094
-0.02999076797843313 0.0028939724447006165 0.015926972573428757
-0.013990414182917658 0.0190339120426669 -0.025552090479353636
-0.028245342791558863 -0.002329301638725389 -0.01319276564456437
-0.013258525944388245 -0.007861170986854052 -0.00713286487659504
0.02270251391040956 -0.022881050370609876 -0.031259627273238146
0.03179042763568408 -0.028709056802878035 -0.0319819794390003
0.028757064461250644 -0.02266465151573251 0.025435208508484707
-0.04612995532121304 0.0027374499047678347 -0.009935452909648583
-0.05511365586841651 0.005875269957980209 0.02165889377924508
-0.05470738576723993 -0.016727193425488125 0.022469348145141028
-0.0011579982104411388 0.0004240678650601007 -0.0018226518020591984
-0.052326109203920244 -0.017679498929355244 0.009133372514169806
-0.06272414831409734 -0.0055834213390157095 0.015663955475702505
0.03502173478390685 -0.01711054185287877 0.007441698321698351
0.038362516670859007 -0.014786813891970311 -0.00224787994992407
-0.0406985841196656 -0.0037400374152852587 0.008375735845009445
-0.05080376762314431 0.023223038728919062 -0.009370913313286192
-0.00740800168032312 0.017726247202065018 0.010226308283260257
-0.019971004758827075 0.030413263629929032 -0.004727346637287065
-0.01948192207714991 0.002642147297196909 -0.005007106029435501
-0.017829394045979476 0.03444140707542886 0.0072940080015577655
-0.0017540844058760937 -0.012222533301608171 0.015741026609884894
-0.01566936137675648 0.021848424553925924 -0.02351383154380135
-0.01832468300530186 0.00857789163773074 -0.012661711577413044
-0.003264134513465874 -0.0056971949713406494 0.0018666382475594516
0.003349581398924066 -0.007303363533931948 0.02206356674721297
0.022251149939575478 0.005782805282374852 -0.04118879378977042
0.014353093520291694 0.014202540872422917 -0.04037864851118087
-0.015802035538775072 -0.0039173331699171214 -0.028923632203367584
-0.006117574113840508 -0.00845622294763185 -0.025034407334047135
0.012612420406483759 0.0038935625258261436 0.001514138898843815
0.009695661908968284 -0.024989204398293545 0.02300856472887904
-0.01857120527534563 0.005396760187851383 -0.003323403621026569
0.007363094800494205 0.016359200562934554 0.012953596401184366
0.019426484441545513 0.01040247402919194 -0.017268919101991444
0.04038219758598732 -0.020954139527263597 0.027184283804162292
-0.02369448723204141 -0.0011711213176672558 0.009028999952077553
-0.015260322326699376 0.010012201869941211 -0.00027646177744352057
-0.008432248981889741 -0.002368819155928563 -0.0049085243750117595
-0.011603432252337738 -0.020200864689681797 -0.013750534232427735
-0.010044872708498912 0.018919673906609 0.03629170359837116
0.02556281547774935 0.022548426093976552 0.006311796807647984
-0.007975480049363614 -0.01774032329267936 -0.003952265374571337
-0.022911938706669285 -0.043975106003445334 -0.008438334773097602
-0.01663170633713432 0.015032552827420888 -0.01896499668369244
0.03057467988901055 -0.0329048030369059 -0.049549822171553286
0.014147165086346463 -0.011989191417022255 0.0226060742988762
-0.020397649005836457 0.0029006659554725376 0.0011838774776064367
-0.04076446398217896 -0.0061552703849083925 -0.00026503423128658725
0.05364413005514354 -0.04295088758221538 -0.027373356201680344
0.038011297175094494 -0.012929212608790082 -0.02325880280302971
0.013186316901675103 -0.005489836500013148 0.01193195448509155
-0.002908236996302788 -0.0018965344491592387 0.011302482954326109
-0.008122277187148613 -0.003925424360973398 0.01589014637887082
0.023505422825589983 0.024413310996350943 0.017377976734148218
-0.04303078816000992 0.0035308643738465027 -0.01883710579254731
0.010850097643466755 0.0026232422201838378 -0.03816865466280323
0.0034424649874797452 0.025443109454247097 -0.011496791222218073
-0.006469362673153247 0.010857144640259535 0.00400343277021815
-0.005255391725896037 -0.0019013796894040654 -0.024178488499041546
-0.003899821248184868 -0.018886043727860277 -0.002886659023189181
-0.008351800134672967 0.0019176845485044283 -0.03905114644700584
-0.056925083264810696 -0.017081206965938154 0.025516197015985977
0.010117413524899229 0.04444036427181869 0.05788463994701664
0.019345648307607554 -0.010304038534786094 0.007182929082415704
-0.006373538532258333 -0.024809608976057114 -0.0013261293721146983
-0.01795482062614836 -0.03326838123213152 -0.00034820905241560954
-0.010663126065935039 -0.04207725696243571 0.020688167280468253
-0.006762962699920301 -0.03864878302949146 -0.0317389624101609
-0.011944660957064758 0.010654620584959104 -0.012303331085831733
-0.010763243719564978 -0.0005963749034286408 0.014938293407018997
-0.007392432301853374 -0.001972145276950765 0.013212346947549506
-0.003940303814355269 0.0019203253416197857 -0.01120245546277255
-0.016567103400633786 0.001762876432308309 -0.00307938930234467
-0.016000149084563514 0.004551152475780517 -0.006864081462977688
-0.02171645651441717 0.0027506211215277345 -0.01416862254168178
-0.006382220679002933 -0.019418762838265505 -0.03838744710403137
-0.012991395799318184 -0.018987044896530386 -0.03515486281054882
-0.01474980530363964 0.0031492982058611294 -0.04224194740608511
0.015917829770544262 -0.005897863400269527 -0.015297118444035722
0.018483277627660603 -0.016764965132305507 -0.019009563000539693
0.019381921916781862 -0.006086191144196472 -0.005594880267133135
-0.01535846867984674 -0.004481517356966947 0.01566490890826755
-0.021155430480324405 -0.012099211918278981 0.011046086568800191
-0.013742694106275483 0.02114381302251142 0.03413701386642443
-0.008155240956573022 -0.014054456860185213 -0.028193011288816013
-0.0073674114174992564 -0.021234810786428356 -0.018303742645796796
0.01013919548002529 0.019142638887444795 0.039733867513103