# vtk DataFile Version 2.0
Really cool data
ASCII
DATASET UNSTRUCTURED_GRID
POINTS 584 double
-1.0 0.0 0.0
-0.9600374798207896 -0.027590413451835553 0.04
-0.9589620457797374 -0.028177574718636023 0.0
-0.9553815213922792 0.019675326217199102 0.04
0.6719637381218919 0.02110482676547816 0.0
0.6414775595248179 0.020020515529780993 0.04
0.6571281419012174 0.06 0.0
0.6240641012293764 0.022292119262118645 0.0
0.687851041884645 0.021313940245698455 0.04
0.7030120427199962 0.06 0.04
0.657128141901218 0.06 0.04
0.7030120427199952 0.06 0.0
0.6885310613992013 -0.0196061899732657 0.0
0.6720046167250797 -0.020579604775701428 0.04
0.6407079554435648 -0.019738458112036637 0.0
0.7171469290115033 0.021165332718839136 0.0
-0.7921016077200962 -0.06 0.04
-0.7604373514312079 -0.019298436119384588 0.0
-0.7479973317145423 -0.06 0.04
-0.7479973317145417 -0.06 0.0
0.7030120427199962 -0.06 0.0
0.7030120427199952 -0.06 0.04
0.6571281419012174 -0.06 0.04
0.7479973317145417 -0.06 0.04
0.7325903506195701 -0.020274227246539274 0.0
0.7176321617908783 -0.019839353713154383 0.04
0.7604373514312079 -0.019298436119384588 0.04
-0.8488906624897727 0.019856366527450334 0.04000000000000001
-0.8052789150181434 -0.019306901564895652 0.0
-0.805541091654972 0.020469431563422978 0.04000000000000001
-0.8203038938742353 -0.020636147377884773 0.04
0.897529295217204 0.022569895749215793 0.0
0.8488906624897727 0.019856366527450334 0.0
0.8569454102823642 0.029774901726562965 0.04
0.8777357995360431 0.06 0.0
0.9553815213922792 0.019675326217199102 0.0
0.95349853104827 0.02147987272312249 0.04
0.9103536180674616 -0.021283841161765512 0.0
-0.5450807564691462 -0.01715484187473429 0.04000000000000001
-0.5372746904547943 0.02439300391790418 0.04
-0.49049502097572617 0.000359712426279548 0.04000000000000001
-0.5409244119327052 -0.005150142234760652 0.0
-0.48901428549955095 -0.02776609156780287 0.019771763033692314
-0.4642419910175897 -0.06 0.04
-0.43891524330526177 8.673617379884035e-17 0.04000000000000001
0.7479973317145423 -0.06 0.0
0.9600486361512215 0.06 0.04
1.0 0.06 0.04
1.0 0.06 0.0
0.9192992165657531 0.06 0.0
0.7479973317145423 0.06 0.04
0.7309057796957548 0.02177174945441851 0.039999999999999994
0.7479973317145417 0.06 0.0
0.7613659684934695 0.020945326906433456 0.0
0.7736855084518748 0.020914979208800512 0.04
-0.8570647961856006 -0.015388027432140593 0.0
-0.8569454102823642 0.029774901726562965 0.0
-0.8649535140731797 -0.02016838668923704 0.039999999999999994
-0.1726925416005594 -1.214306433183765e-16 0.039999999999999994
-0.22806385632140147 1.0755285551056204e-16 0.039999999999999994
-0.2006519843784229 0.06 0.0
-0.22806385632140147 -1.1796119636642288e-16 0.0
0.438611990705585 -5.252150912499892e-05 0.04
0.41358849559293387 -0.06 0.04
0.4135884955929341 -0.06 0.0
0.4642419910175897 -0.06 0.0
0.4782715374234063 0.0302584611690398 0.019894876072988572
0.513903464641242 0.06 0.0
0.49049502097572617 0.000359712426279548 0.0
0.46424199101758934 0.06 0.0
0.46424199101758934 -0.06 0.04
-0.8164681441220105 0.022269284396602723 0.0
0.48912437490067595 -0.00041996788971368666 0.04
0.4642419910175897 0.06 0.04
-0.8353421249080566 0.06 0.04
0.8649535140731797 -0.02016838668923704 0.0
0.8973163514988121 0.02144006532192878 0.04
0.5625923446839085 0.06 0.04
0.6103276788742331 0.06 0.0
0.5943416245309461 0.018901239582525348 0.04
0.5790918012159274 0.021628695864523574 0.0
-0.593631917725493 -0.01946781888421301 0.04
-0.6103276788742336 -0.06 0.04
-0.6407079554435648 -0.019738458112036637 0.039999999999999994
-0.6264545933043166 -0.021459100211208025 0.0
-0.6103276788742331 -0.06 0.0
-0.6103276788742336 0.06 0.0
-0.6240641012293764 0.022292119262118645 0.04
-0.6414775595248179 0.020020515529780993 0.0
-0.5943416245309461 0.018901239582525348 0.0
-0.5790918012159274 0.021628695864523574 0.04000000000000001
-0.5625923446839077 0.06 0.04
-0.6103276788742331 0.06 0.04
-0.5625923446839085 0.06 0.0
-0.7325903506195701 -0.020274227246539274 0.039999999999999994
-0.7176321617908783 -0.019839353713154383 0.0
-0.7309057796957548 0.02177174945441851 0.0
-0.7736855084518748 0.020914979208800512 0.0
-0.7613659684934695 0.020945326906433456 0.04
-0.6571281419012174 0.06 0.04
-0.6719637381218919 0.02110482676547816 0.039999999999999994
-0.7030120427199952 0.06 0.04
-0.687851041884645 0.021313940245698455 0.0
-0.029521960903255984 -0.06 0.04
-0.05860957814939871 -6.938893903907228e-17 0.039999999999999994
-0.05860957814939863 5.898059818321144e-17 0.0
-0.08769719539554167 -0.06 0.0
-0.08769719539554144 -0.06 0.04
-0.2823507532564078 -5.204170427930421e-17 0.04
-0.25547572826437986 0.06 0.04
-0.25547572826438003 0.06 0.0
0.38751191920162714 6.938893903907228e-18 0.0
0.3352618020299945 -3.469446951953614e-18 0.0
0.36192316205531716 0.06 0.04
0.3619231620553172 0.06 0.0
-0.36192316205531716 0.06 0.0
-0.335244821032008 -1.1796296425746478e-06 0.0
-0.3352618020299945 -3.469446951953614e-18 0.039999999999999994
-0.38745316199969926 -7.894682722445895e-06 0.0
-0.3619231620553172 0.06 0.04
-0.3092257782484355 0.06 0.04
0.28235075325640757 5.551115123125783e-17 0.039999999999999994
0.30922577824843556 -0.06 0.0
0.335244821032008 -1.1796296425746478e-06 0.04
0.3092257782484355 -0.06 0.04
0.36192316205531716 -0.06 0.0
0.38745316199969926 -7.894682722445895e-06 0.04
0.3092257782484355 0.06 0.0
-0.38751191920162714 6.938893903907228e-18 0.04
-0.28235075325640757 5.551115123125783e-17 0.0
-0.30922577824843556 0.06 0.0
0.6103276788742336 -0.06 0.0
0.593631917725493 -0.01946781888421301 0.0
0.6264545933043166 -0.021459100211208025 0.04
0.4889627886584896 -0.027603176797077415 0.020155725176282127
0.583287522480325 -0.023728770665855194 0.039999999999999994
0.5450807564691462 -0.01715484187473429 0.0
0.5409244119327052 -0.005150142234760652 0.04
-0.48912437490067595 -0.00041996788971368666 0.0
0.3619231620553172 -0.06 0.04
-0.657128141901218 0.06 0.0
0.9600374798207896 -0.027590413451835553 0.0
1.0 0.0 0.04
0.9589620457797374 -0.028177574718636023 0.04
0.5625923446839077 -0.06 0.04
0.5625923446839085 -0.06 0.0
0.7766984080639845 -0.02052537972713625 0.0
-0.438611990705585 -5.252150912499892e-05 0.0
-0.583287522480325 -0.023728770665855194 0.0
-0.9600486361512215 0.06 0.0
-0.95349853104827 0.02147987272312249 0.0
-0.9192992165657539 0.06 0.0
-0.9192992165657531 0.06 0.04
-1.0 0.06 0.0
-0.14473309882269625 -0.06 0.04
-0.14473309882269605 -0.06 0.0
-0.11621514710911887 -1.214306433183765e-16 0.0
-0.17269254160055947 1.1796119636642288e-16 0.0
-0.14473309882269625 0.06 0.0
-0.11621514710911884 1.214306433183765e-16 0.039999999999999994
-0.8353421249080566 -0.06 0.0
-0.8353421249080575 -0.06 0.04
-0.8973163514988121 0.02144006532192878 0.0
-0.897529295217204 0.022569895749215793 0.04
0.11621514710911887 -1.214306433183765e-16 0.039999999999999994
0.05860957814939871 -6.938893903907228e-17 0.0
0.05860957814939863 5.898059818321144e-17 0.039999999999999994
0.08769719539554144 0.06 0.04
0.6103276788742336 0.06 0.04
0.5139034646412424 -0.06 0.0
0.9096368506350345 -0.020963842829632554 0.04
0.805541091654972 0.020469431563422978 0.0
0.8052789150181434 -0.019306901564895652 0.04
0.8203038938742353 -0.020636147377884773 0.0
0.08769719539554144 -0.06 0.0
0.08769719539554167 -0.06 0.04
0.9192992165657531 -0.06 0.04
0.8164681441220105 0.022269284396602723 0.039999999999999994
-0.9103536180674616 -0.021283841161765512 0.04000000000000001
-0.8777357995360431 -0.06 0.0
-0.9096368506350345 -0.020963842829632554 0.0
0.8570647961856006 -0.015388027432140593 0.04
0.7921016077200956 -0.06 0.04
0.8353421249080566 -0.06 0.04
0.7921016077200962 -0.06 0.0
0.4135884955929341 0.06 0.04
0.43891524330526177 8.673617379884035e-17 0.0
-0.7921016077200956 -0.06 0.0
-0.08769719539554144 0.06 0.0
0.14473309882269605 0.06 0.0
0.1726925416005594 -1.214306433183765e-16 0.0
0.11621514710911884 1.214306433183765e-16 0.0
-0.029521960903255984 0.06 0.0
0.0 0.0 0.0
0.17269254160055947 1.1796119636642288e-16 0.04
0.14473309882269625 0.06 0.04
0.0 0.0 0.04
0.2006519843784229 0.06 0.04
0.22806385632140147 -1.1796119636642288e-16 0.04
0.22806385632140147 1.0755285551056204e-16 0.0
-0.6720046167250797 -0.020579604775701428 0.0
-0.7030120427199962 -0.06 0.04
-0.7030120427199952 -0.06 0.0
0.25547572826438003 0.06 0.04
0.30922577824843556 0.06 0.04
0.25547572826437986 0.06 0.0
-0.02952196090325599 0.06 0.04
0.2006519843784232 -0.06 0.04
0.14473309882269605 -0.06 0.04
0.2006519843784229 -0.06 0.0
0.14473309882269625 -0.06 0.0
0.2823507532564078 -5.204170427930421e-17 0.0
-0.36192316205531716 -0.06 0.04
-0.41358849559293387 -0.06 0.0
0.5372746904547943 0.02439300391790418 0.0
0.5139034646412424 0.06 0.04
-0.5139034646412424 -0.06 0.04
0.41358849559293387 0.06 0.0
-0.7171469290115033 0.021165332718839136 0.04
-0.7479973317145417 0.06 0.04
-0.7030120427199962 0.06 0.0
0.08769719539554167 0.06 0.0
0.029521960903255984 -0.06 0.0
-0.02952196090325599 -0.06 0.0
0.02952196090325599 -0.06 0.04
0.02952196090325599 0.06 0.0
0.029521960903255984 0.06 0.04
-0.47805793986482265 0.03008719549728311 0.01940109733029794
-0.4642419910175897 0.06 0.0
0.6103276788742331 -0.06 0.04
1.0 -0.06 0.04
0.9600486361512205 -0.06 0.04
0.9600486361512215 -0.06 0.0
-0.3092257782484355 -0.06 0.0
0.877735799536044 -0.06 0.0
0.8777357995360431 -0.06 0.04
-0.41358849559293387 0.06 0.04
-0.4135884955929341 0.06 0.0
1.0 -0.06 0.0
1.0 0.0 0.0
-0.14473309882269605 0.06 0.04
-1.0 -0.06 0.0
-0.9600486361512215 -0.06 0.04
-1.0 -0.06 0.04
-0.7921016077200962 0.06 0.0
-0.9192992165657531 -0.06 0.0
-0.9600486361512205 -0.06 0.0
-0.7921016077200956 0.06 0.04
-0.7766984080639845 -0.02052537972713625 0.04
-0.5625923446839085 -0.06 0.04
-0.5625923446839077 -0.06 0.0
-0.877735799536044 -0.06 0.04
0.7921016077200962 0.06 0.04
-0.3619231620553172 -0.06 0.0
-0.7479973317145423 0.06 0.0
-0.8777357995360431 0.06 0.04
-0.4135884955929341 -0.06 0.04
-0.46424199101758934 -0.06 0.0
0.513903464641242 -0.06 0.04
-1.0 0.0 0.04
-0.877735799536044 0.06 0.0
-0.30922577824843556 -0.06 0.04
[...]
POINT_DATA 584
VECTORS displacement double
-0.00036766239068515105 0.000546206119807773 -0.00011441807564746117
-0.0007898427907818798 0.0005086565367310869 -0.00016159770924340118
-0.0006663063145250947 0.0005995387695861805 -0.00022024775277599952
-0.00037870221829728657 0.0002780890499523061 0.00022157010006801684
-0.018353895621418075 -0.008804501964475193 0.011149381176595282
-0.014053409808662497 0.026418765983296157 -0.00432939639799312
-0.02964517099967758 0.014780864270924562 0.012561396434040403
0.004631710837650028 0.030848937044109227 0.026466500761163244
-0.010897582478404761 -0.007325972590045033 0.00445235718638728
-0.03542663496495758 -0.010343006787310729 0.013357702974310945
-0.03464049573739386 0.003618921077197153 0.021447958426504318
-0.03635620645371891 0.0008611625907576593 0.010635277844872287
0.015401952486375221 -0.002841599848215782 0.007472223349338028
0.021180750876757595 -0.0027612427296497192 0.012310186125055706
-0.005549598177626496 -0.03365242468374477 0.010857065682123652
-0.009236408540841927 0.018142662241419007 0.004321567199344751
0.0017747452510419775 0.008104276999342675 -0.0006714607805661116
0.0011693155196275447 -0.0011973303400424594 -0.0006568107870819699
0.0032357567000052888 -0.006145870439340691 -0.000695090422560885
0.0025919043129176067 -0.004113369768256465 -0.0009259058078874186
0.012934955500990008 -0.018400913573642548 0.006236279865312235
0.029366315374046385 -0.02210434534689809 0.01108843893215769
-2.7359313066538497e-05 0.08351380730405754 0.035763850240180285
0.00044211235597964174 -0.017840814782897875 -0.004529737012759313
0.004575362137703732 0.0009186320463935207 0.004755323157293724
0.013375854849009628 0.0065522159851121526 -0.0006903366107421935
0.003974492662280685 -0.021818572474805252 -0.003537902393979132
2.7430724664895453e-05 0.0003943373653123613 -0.00011260291551966338
-0.0016540997274274126 0.0015482693766510082 -0.0005289203939089478
0.0006588333494762158 -3.567581256190136e-05 1.4220623606027075e-05
-0.0022271598714998873 0.0005219585253277106 -0.00022791391256088777
-0.007306732990154911 -0.004646781359735187 -0.003920455292527892
-0.010363221454245215 0.0012967716463847011 -0.0038961086290637804
-0.011072661384718838 -0.009745733193414024 -0.0042826962980971545
-0.03657089191845023 -0.0060678319345107675 -0.00211449216236988
-0.001984535589221117 -0.00323321735000375 -0.003946460615890335
-0.001951999426786335 -0.0009210443587758232 -0.0048074779028752295
0.006502496348546401 -0.004677251830622474 -0.0013181842474951418
-0.0028403749246798684 -0.005583210412794552 0.002288658008783163
-0.0008939476090181942 -0.008980254589938322 -0.0002586077940248435
0.0016058787973524174 0.00481108711812035 -0.002350939623083197
-0.0010647481564272849 -0.0064022110186486205 0.0026847570079219785
0.02045503328380171 -0.008942856786597392 0.0015877593901291334
-0.01012707843607748 -0.06358328234384521 -0.007151363631385297
-0.00564426630689895 0.026464489604103626 -0.0013924801395785874
0.0010237690589196694 -0.011921372829741038 -0.0014641319340328034
-0.02839139909875609 -0.0006997208811360707 -0.006754499934080895
-0.02577971735024516 0.012336766540530387 -0.008736174311138867
-0.027710091131315773 0.009230024636080811 -0.007883844543860348
-0.03042349451884238 -0.008324699814684549 -0.00509767154490014
-0.025281757517529806 0.05381680756236709 -0.0013803840141815575
-0.0034845916553365944 0.03172578725196269 -0.001728005262461185
-0.02902652254945257 0.04035979330843602 0.001977091769163736
-0.02359468067472272 0.009404641201543747 0.0026692073914964306
-0.020448952726874324 -0.004998591784409105 -0.002974202756446926
-0.0010020272495971923 -0.00018160424376523855 -0.0003672073331123598
0.00012007436957905194 0.0004274267696522967 -0.0001041028066543701
-0.000921655470228926 -0.0008747017642190952 -0.00043944735738976707
-0.0047613829340610505 -0.019806033953518105 -0.003182797358108665
0.008147838779872529 0.0257228009210205 0.00021639132412764163
0.008251506146009538 0.015703757092619487 -0.003110226031760739
0.0057945077272557035 0.02132368501269101 -0.000943397939438164
0.02792307514996082 0.08184160846064335 0.00576036361293427
0.005036049615382164 0.1594352627898605 0.016973646416947163
0.016522108251486516 0.1151658839549347 0.015292178950334299
-0.011135775896408113 -0.08757382519581794 0.013260501283369973
0.045377054009799835 -0.0266528758104833 -0.01622170840251243
0.03035885659999067 0.04316247937811745 -0.012933901575023232
0.007585241297358798 -0.044069828300383265 -0.005502426897814101
0.03719621042758158 -0.019690915165141713 -0.00433647563161587
-0.012819825180738063 -0.14855952151576207 -0.02448720825521398
0.0003774487596810432 0.0004506954237629171 -0.0005606858249272432
0.006924060822166183 -0.03129180153471206 -0.011410876059257221
0.02623492702136154 -0.07001235222810186 -0.0010043248199045163
0.00012555898745588744 -0.0009789224108198988 0.00021989810030704539
0.007273452809731818 0.002527781003396442 -0.002262295325948322
-0.003002475504962328 -0.0019789874737768127 -0.003137108941303556
0.037296691828383875 -0.09036998508095638 0.00990475649296717
0.006671944435174966 0.09053719854925309 0.012350480828809202
0.04968852118999404 -0.009336621217945177 0.005141820315171643
0.029972858745351712 -0.016738196127602818 -0.002102533933801166
-0.0017505581583014253 -0.0014449697044194697 -0.0009101692429655854
0.0021552845272799627 0.0018045364077973031 -0.002867756291305899
-0.0018082586172819323 -0.0010030422989019787 -0.0003465524068478601
-0.0006514092695525184 0.0009166351890123789 -0.0004897620232304664
0.004816029591778787 0.0010927913907482637 -0.000547078705966697
0.0017083009471855314 0.005582499920445337 0.0008592369187117909
0.0013687485020615958 0.0020047419094115153 3.119847806269716e-05
0.0022193704588777583 -0.00017614190739479363 -0.0002719802840255728
0.0007681929231887836 0.0031325528872494877 0.0004924756459178626
-0.0016469035477108904 0.0027751648117229056 -0.0005444403097479706
0.002246013868205896 -0.0008085947021012795 -0.00011333753140139158
0.0009666281403494867 0.006584714958657357 0.0008992776014519162
0.0029880423622106983 0.00025159576675042993 0.00213129195606275
-0.001538177953555355 -0.0004511563363202736 -0.001491669782798965
-0.0011058392286961956 -2.22599434202017e-05 0.00010145559568255393
0.0009754473887749383 0.001989635577266981 -0.00015615662008827366
0.0007981676913638054 -0.0004692878599499448 -0.0007607070658549905
0.0002675759474800643 0.0004007699947216727 -0.0004177592257824703
0.0012831868256668918 -0.005732067429646561 0.00041162472183747036
0.00047516833056282943 -0.0019808357530633354 0.00020243514683644946
0.0009532500615649215 0.0003229947958592526 0.0004988945698737292
0.00042756099996622615 0.0001526137307332397 -0.00034926005413804116
0.005184879391309191 -0.0029483783241113387 -0.006453635557990878
0.0016519463555611847 -0.050369560846661415 -0.0015956081694531487
0.0015175826742355146 -0.04056936241182923 -0.002977833839458967
-0.021178776407170197 -0.0028953302247386567 -0.004629417198483727
-0.016621143771367985 -0.0013221598407812687 0.00475271240767897
-0.00682026081501282 -0.03135549595860479 0.0009954161537589967
-0.013437735265544983 -0.030040032062795815 0.005253308386938049
-0.010159982995604083 -0.02564567982132473 -0.0008013233289610552
-0.015575981221606323 -0.055320234262406676 -0.00402543007398253
0.023152328812211173 0.07725709312208245 -0.01205120339658171
0.0397147103012109 0.02647892307915557 -0.004534064551303276
0.037968552721056675 0.026225466057476374 -0.008363214540046605
-0.011673455045274516 -0.02421821886959665 -0.0022724272008185133
0.004899046315436674 0.02218013862471594 0.004653571218616897
0.008612265397935349 0.0332166857490495 -0.0018782862403287032
-0.0003921910919233304 -0.026443698156214994 0.0024563371142222097
-0.003435614038691223 -0.037287858123060486 0.006962553011780196
0.01179285780737279 0.03410101999182379 -0.006802135837602231
-0.007242175413495005 -0.053580073690373604 0.0010622927009326915
0.030620762326838292 0.0903934804133855 -0.004943730200884435
0.02940327630120306 0.10651593285901353 -0.0035481621382904066
0.022932935181548934 0.11710408239646476 0.004144681558760061
-0.030177105679241225 -0.1164801367590462 0.0004088818749936532
-0.02691312276005966 -0.06808562280525772 -0.0057012714786170695
-0.013217548690690493 -0.02743826331231144 -0.011103784499663939
0.0002577376469942987 -0.029546793403032547 0.002866303166092185
-0.010178164091647724 -0.026491929736071597 0.0004464556562174603
0.008189784657500804 0.025344734863981977 -0.00024124810676906826
-0.04834856721705763 -0.06584429281811875 0.01480693742354779
0.02425035055714599 0.0032111477497980354 0.00569778704776645
0.007422633149264838 -0.08942861631245652 0.005758621913666821
-0.046000020050751315 -0.04623809796251818 -0.0018132768819798329
0.016402542052392784 0.05856509955771337 0.01059227162299365
0.010685063106603625 0.0011354319456789292 0.0024754045756379796
-0.00747286733194587 -0.01327962484037964 0.008907438065231987
0.00015857967987944975 -0.004837525861869016 0.002943298290961813
-0.04386359612090343 -0.1782205814646946 -0.03792851768943771
0.0015963261905889824 -0.003351933011620236 0.0006964960829480961
0.005463438536453424 -0.0031913835333770126 -0.0012925457925596173
0.002615605314921387 0.002940187654538326 -0.005402488172445401
0.0063838356835983255 -0.0011465790309139385 -0.0009535719908055092
-0.002361660143656681 0.047519525862716544 0.019585955795342374
-0.005219787823687577 0.021927604468164927 0.024415296376291792
0.0009903037648613861 -0.003003216761734342 -0.004412695116999174
-0.00657644170953088 0.02255382669015176 0.0029104436278103957
-0.0002105293457215956 -0.0014710373994023178 0.0006941537903006222
0.0002289030068207639 0.0003980993803786868 0.0003539273028397233
-0.00021192267218711532 0.0004227777315681535 8.307893779672987e-05
0.00022093035805609968 -0.0007176540107514881 0.00028907383596608915
0.00011305844532818211 -0.0018170138077683617 0.0005992912496284159
0.0002889256358653902 0.0009644434074875267 0.00025966148238646466
0.0007029429637777948 0.014305598512373561 0.001410392612619203
0.0004487945032986577 0.013317568568616519 -0.0009219429993688489
-0.0002226121239222623 0.024231892350788226 -4.0836469339152774e-05
-0.005468128164093172 -0.01712485941084925 -0.002248260479467752
-0.006594277641253137 -0.0038824972973189337 -0.0034538641492204234
-0.00035757046515817644 0.03011926428943143 0.0015214942300263944
0.0012605903883742065 -0.0007162615318275819 -0.0006862698976750944
0.0007369225724683288 -0.0018337369259760461 -0.0009281502597269115
0.00039780851536759537 0.0003004301953926936 6.125800668998367e-05
0.0009318576373876013 0.00018173650650377327 -2.1135333133907406e-05
-0.008977444348002211 0.051515491575276184 -0.003450027267879165
0.021138447996790845 -0.0507280235539901 0.004481115450897512
0.025973601664152544 -0.06850847253805271 -0.001997592863633544
-0.0026625957735052328 0.10443737594704841 -0.004262194172270427
-0.009616562125882648 0.1526887872918904 0.012467326992799631
-0.0147337352279484 0.007210342346423536 0.02112643385623564
0.005065058803199723 -0.0038665261328510426 -0.0020386760906238584
-0.00595810922552345 -0.00822845224580481 -0.002077511470542706
0.005346809860295905 0.002053283996789316 0.001061628917202264
0.008586670705657861 0.00219854205629011 -0.003200227214492443
0.014507837080640315 -0.024780722710418843 0.0014892740934916143
0.010707411891922307 -0.018604283313941854 -0.005523133658617726
0.0034990800522671376 -0.003995818493277425 0.0005188701384555042
0.00010956949270429291 0.0011937558597092674 -0.0021303582503591433
-0.0009622643956159802 0.00035727151223796097 -0.00010087389776313561
0.000998396280781191 9.82907166641355e-05 -0.0008211509349169795
-0.000916463357594423 0.0005585718548257278 -0.00019754767354416766
0.005612599633560035 0.0053212870690314065 -0.0007607118518895039
0.003979176255436446 0.01928767890418522 -0.001977178806407649
0.005915366161933911 0.004812041632516583 -0.0011252290233615852
0.006614923420349988 0.010477933629138849 -0.00014092826802014903
-0.0072502509302965435 0.0004009824982207801 -0.0026704205557958475
0.008484936172721055 0.04751107012136756 -0.014115972365327164
0.002120224051355166 0.005854794596067894 -0.0004290020408501849
0.017431300196060227 -0.014836910026425586 -0.0007802506777972048
0.007133122568533189 -0.04913153570610169 -0.006201408902395702
0.011474773251130903 -0.06207476199741706 0.0004529493699356873
-0.011530181998122108 0.04490324920763822 -0.00021520470998986948
-0.013135412180371883 0.018594133732693554 -0.002193905484873889
-0.004786499105496388 0.05054596088331985 -0.0015730698241776914
0.008636075295420133 -0.06920274304323513 0.005742818231389722
0.0001539605853338402 -0.07203501443173504 0.011911177191686556
-0.009975445579535693 0.056075774186549805 0.0037130268676179396
-0.04273469200604734 0.05572036164273728 -0.010932493364987255
0.0019856413354634103 0.06146761068324383 -0.0029651656958407852
0.0028360723545599173 0.04620422109744026 0.00037841109667360623
-0.0018295824090293707 0.0008814290086913493 -0.000774300068900499
0.0014375645436290857 -0.0022226464924970423 -0.0001053842427162023
0.0010782441170693107 -0.0007714142321490884 -0.0006847327409867174
-0.01512762480622865 -0.03637627704211383 -0.0029420850365853624
-0.01650551932977799 -0.050011574751984596 0.007664696802537414
0.006845178786121236 -0.02406839374578424 0.0024633336621907834
-0.023606830284133917 0.02554096436937947 -0.0121486490035229
0.034566363153345415 0.028302189085717255 0.008258106540100419
-0.025195913828670844 0.009463798296044164 0.006912135743032203
0.019208438516074136 0.021905194909812287 0.0033742606815712803
-0.024365017448492395 0.010442702896798392 0.0021494570104813493
-0.008216238072359177 -0.047710682189571425 -0.003862863930657425
0.011620561505205622 -0.006211238815589645 0.0024999228065147126
-0.011200951678155616 0.02928675122654687 0.0040370756675336
-0.002790898086488154 -0.006388549601296762 0.0028624397120861254
0.016899434516542595 0.07406567774760249 -0.02423190304818204
0.008972024686505419 0.030572775370171817 0.011204163778425903
-0.002105101325406766 -0.007095765006650912 -0.006235993105692765
-0.00011274033975579982 0.0031946558077705404 -0.00025456107601871703
-0.0007742803846276456 -0.00013947444540676852 -2.8654453577416952e-05
0.001384299567578928 0.00144041727319117 0.000126637471656784
-0.016855727380787916 0.07699070790826848 -0.00029810714496274
-0.019148881606078704 0.02866481760758418 -0.0035177711695791552
0.006554599861545923 -0.0009017925306216069 -0.0057118848566955005
-0.031051116677488565 0.025296083941841994 0.0019961921646975715
0.03171961118458684 -0.05464881297848407 0.006458336070119394
0.0353067148455661 -0.06539214090801243 0.011992699491476093
-0.004023948239690672 -0.00042793850659123125 1.0518681487118854e-05
-0.002852590256693393 0.0035855185781530205 0.002503333453716212
-0.056750849786023225 -0.08243883324145611 0.0011184782331960103
0.0065982298823400645 0.001887532948168053 0.00018268973051217775
0.004904357925461164 0.0014417395645804115 0.0017940306838527267
0.006360128706800564 -0.002396462909603658 0.00139916866740297
-0.013765258511352138 -0.02055903163281774 0.0012695837635846596
0.0055607079185385384 -0.0012636342836319758 -0.001379878740152031
0.003217861019413472 -0.0009203891703414643 -0.0021889080744294004
0.01688811968575315 0.022532446770529152 -0.0009709059933200503
0.003733660561972479 0.01556709776305612 0.00014045822729420087
0.007877405703339209 -0.0014449920023728523 0.0015883535006041493
0.003652409150086341 0.0014177310154989038 -0.0027177767349421075
-0.006665704419681355 -0.00843264759675186 2.2864166162256607e-07
0.0008727432947913315 -0.0011366297526667713 -0.0005799283469336528
0.0008387318765609575 0.0008231164748635602 -0.00023096472768793493
0.0006597013556270163 -0.0020065116086299835 -0.0006536387150023121
0.00021889693673238773 -0.0005326099091969867 -0.0006034762326297488
0.0011309275980970006 0.0004542499822473848 -0.00036917541648199734
0.001009223420530117 0.0006883833467770462 -0.00039059609533370734
-0.0001768226030646453 -0.0006915057217041153 -0.0001471530965361696
0.000594552376157437 -5.904794536862702e-05 -0.0003748213713075747
0.004723353972091845 -0.003781486526713865 0.002393206752397506
0.005076567282651717 -0.0026900137586610873 0.00029811643022264615
0.0006565165482541073 -4.4681710249846425e-05 -0.0006395978528913007
-0.019186181962546255 -0.05248915244729887 -0.0020170559425218247
0.01075779492217521 -0.00436783977826546 0.002265495448031355
0.00012286501067938744 0.0004349209879488152 -4.466148914994671e-05
-8.360743340241408e-05 0.001353036799138826 -7.396856545192458e-05
-0.020634124910775327 0.040680798476303494 0.004383587833906837
0.0033263499001505094 -0.03643680212510172 -0.004701522499332619
-0.02568804729160199 0.04923615371952107 0.017548741213890006
-0.0006320382910548003 0.0005544901762943282 -0.0005299326560749
0.00011010328604068372 0.001171955280802787 1.0272197855401672e-05
-0.01104355992866652 -0.030651056244015394 0.0024198846908491294
0.005884652543026451 0.02952202614889055 0.003730604270296856
0.01606074072173591 -0.009676849578753331 -0.001047586511685014
-0.023407828352172203 -0.045165201591153586 -0.0120840534195446
0.0014053755844770286 0.02495891634055766 -0.0008170449320354006
6.761658077649722e-05 -6.907978284571227e-05 0.0005273867679795705
0.0009476882134202573 5.967047861323271e-05 -0.00023256293235176026
-0.0019562613029228304 0.00414164384305254 0.002540383015119507
-0.0029925796049681094 0.0008555576379995681 -0.00046263341421963624
-0.029256284250427898 -0.0025621534174376983 -0.006126426988726731
1.8135881839889273e-05 0.0008147955972900759 0.000374602424547764
-0.005983863735044956 0.007016486603178511 -0.0024527642716355757
0.004693035649359485 -0.01781837866941779 0.008754750832502446
0.0013310700705606376 0.002121078921365657 -0.0017082887081503598
-0.03543819949504069 0.002196079045334676 -0.006375920911667486
-0.033267875638725186 -0.009884923469689565 -0.007506885005476951
-0.01574792891517567 -0.0626901388692592 -0.013732178426362261
0.008147325480295516 0.0022090430434249485 -0.0010062133529925596
0.01219858880366167 0.015414247442697274 -0.0003468950639031426
0.008369201548144559 0.02103349440431887 -0.006139083871819263
-0.0001783661711800634 -0.00023950759427965519 2.2460622672259892e-05
-0.020240637562291684 0.023850502001479673 0.006655744724082031
-0.010992083308274036 0.042149998517944404 -0.006758600900644796
-0.02579876066805855 -0.03814669334240978 0.0016503833143929878
0.0060314738835397326 -0.005187006797601271 8.340517843581906e-05
0.02329732201252893 -0.06305036832038358 0.010383091125237024
0.0005123503920647649 0.001988384681131277 -0.0007006009270406815
-0.0080054584766927 0.03846468470187522 0.01806601707272051
-0.01048517714095895 -0.02168441886742751 -0.006947329331053771
-0.010001510420554256 -0.016715695458276694 -0.004157574086053853
-0.02794951717194421 0.03522226748634815 -0.005652492963381304
0.0007315428108419312 0.00047263946117469415 -0.0006240102866900331
-0.0011056815736211808 0.00031886576579264923 -0.0004951651830703923
0.0002100083607042184 0.0010994237205407971 -0.0004026772989723051
-0.0029954344032562903 0.000449660108736043 -0.0005067154155070087
-0.014807410715949003 0.059929703159534824 0.0055018373999875395
0.0012913480536202889 -0.0010632144707897956 -8.545132769918913e-05
0.0006088675330780694 0.0006714706305344251 0.00012694377350507422
0.01287751590634377 0.02667087055023134 -0.001724457826946054
0.0007666069159667473 -0.033648471571620424 0.006318689719155735
0.0133243180652474 0.030115697387305473 0.001733727424435974
0.003915135766156392 0.004498014424593004 -0.0003812611191908555
-0.010129785810827232 0.009516004527268323 -0.00019278660589047028
0.0015175377272228809 0.0013964309285854415 -0.0006268214135454703