# vtk DataFile Version 2.0
Really cool data
ASCII
DATASET UNSTRUCTURED_GRID
POINTS 584 double
-1.0 0.0 0.0
-0.9600374798207896 -0.027590413451835553 0.04
-0.9589620457797374 -0.028177574718636023 0.0
-0.9553815213922792 0.019675326217199102 0.04
0.6719637381218919 0.02110482676547816 0.0
0.6414775595248179 0.020020515529780993 0.04
0.6571281419012174 0.06 0.0
0.6240641012293764 0.022292119262118645 0.0
0.687851041884645 0.021313940245698455 0.04
0.7030120427199962 0.06 0.04
0.657128141901218 0.06 0.04
0.7030120427199952 0.06 0.0
0.6885310613992013 -0.0196061899732657 0.0
0.6720046167250797 -0.020579604775701428 0.04
0.6407079554435648 -0.019738458112036637 0.0
0.7171469290115033 0.021165332718839136 0.0
-0.7921016077200962 -0.06 0.04
-0.7604373514312079 -0.019298436119384588 0.0
-0.7479973317145423 -0.06 0.04
-0.7479973317145417 -0.06 0.0
0.7030120427199962 -0.06 0.0
0.7030120427199952 -0.06 0.04
0.6571281419012174 -0.06 0.04
0.7479973317145417 -0.06 0.04
0.7325903506195701 -0.020274227246539274 0.0
0.7176321617908783 -0.019839353713154383 0.04
0.7604373514312079 -0.019298436119384588 0.04
-0.8488906624897727 0.019856366527450334 0.04000000000000001
-0.8052789150181434 -0.019306901564895652 0.0
-0.805541091654972 0.020469431563422978 0.04000000000000001
-0.8203038938742353 -0.020636147377884773 0.04
0.897529295217204 0.022569895749215793 0.0
0.8488906624897727 0.019856366527450334 0.0
0.8569454102823642 0.029774901726562965 0.04
0.8777357995360431 0.06 0.0
0.9553815213922792 0.019675326217199102 0.0
0.95349853104827 0.02147987272312249 0.04
0.9103536180674616 -0.021283841161765512 0.0
-0.5450807564691462 -0.01715484187473429 0.04000000000000001
-0.5372746904547943 0.02439300391790418 0.04
-0.49049502097572617 0.000359712426279548 0.04000000000000001
-0.5409244119327052 -0.005150142234760652 0.0
-0.48901428549955095 -0.02776609156780287 0.019771763033692314
-0.4642419910175897 -0.06 0.04
-0.43891524330526177 8.673617379884035e-17 0.04000000000000001
0.7479973317145423 -0.06 0.0
0.9600486361512215 0.06 0.04
1.0 0.06 0.04
1.0 0.06 0.0
0.9192992165657531 0.06 0.0
0.7479973317145423 0.06 0.04
0.7309057796957548 0.02177174945441851 0.039999999999999994
0.7479973317145417 0.06 0.0
0.7613659684934695 0.020945326906433456 0.0
0.7736855084518748 0.020914979208800512 0.04
-0.8570647961856006 -0.015388027432140593 0.0
-0.8569454102823642 0.029774901726562965 0.0
-0.8649535140731797 -0.02016838668923704 0.039999999999999994
-0.1726925416005594 -1.214306433183765e-16 0.039999999999999994
-0.22806385632140147 1.0755285551056204e-16 0.039999999999999994
-0.2006519843784229 0.06 0.0
-0.22806385632140147 -1.1796119636642288e-16 0.0
0.438611990705585 -5.252150912499892e-05 0.04
0.41358849559293387 -0.06 0.04
0.4135884955929341 -0.06 0.0
0.4642419910175897 -0.06 0.0
0.4782715374234063 0.0302584611690398 0.019894876072988572
0.513903464641242 0.06 0.0
0.49049502097572617 0.000359712426279548 0.0
0.46424199101758934 0.06 0.0
0.46424199101758934 -0.06 0.04
-0.8164681441220105 0.022269284396602723 0.0
0.48912437490067595 -0.00041996788971368666 0.04
0.4642419910175897 0.06 0.04
-0.8353421249080566 0.06 0.04
0.8649535140731797 -0.02016838668923704 0.0
0.8973163514988121 0.02144006532192878 0.04
0.5625923446839085 0.06 0.04
0.6103276788742331 0.06 0.0
0.5943416245309461 0.018901239582525348 0.04
0.5790918012159274 0.021628695864523574 0.0
-0.593631917725493 -0.01946781888421301 0.04
-0.6103276788742336 -0.06 0.04
-0.6407079554435648 -0.019738458112036637 0.039999999999999994
-0.6264545933043166 -0.021459100211208025 0.0
-0.6103276788742331 -0.06 0.0
-0.6103276788742336 0.06 0.0
-0.6240641012293764 0.022292119262118645 0.04
-0.6414775595248179 0.020020515529780993 0.0
-0.5943416245309461 0.018901239582525348 0.0
-0.5790918012159274 0.021628695864523574 0.04000000000000001
-0.5625923446839077 0.06 0.04
-0.6103276788742331 0.06 0.04
-0.5625923446839085 0.06 0.0
-0.7325903506195701 -0.020274227246539274 0.039999999999999994
-0.7176321617908783 -0.019839353713154383 0.0
-0.7309057796957548 0.02177174945441851 0.0
-0.7736855084518748 0.020914979208800512 0.0
-0.7613659684934695 0.020945326906433456 0.04
-0.6571281419012174 0.06 0.04
-0.6719637381218919 0.02110482676547816 0.039999999999999994
-0.7030120427199952 0.06 0.04
-0.687851041884645 0.021313940245698455 0.0
-0.029521960903255984 -0.06 0.04
-0.05860957814939871 -6.938893903907228e-17 0.039999999999999994
-0.05860957814939863 5.898059818321144e-17 0.0
-0.08769719539554167 -0.06 0.0
-0.08769719539554144 -0.06 0.04
-0.2823507532564078 -5.204170427930421e-17 0.04
-0.25547572826437986 0.06 0.04
-0.25547572826438003 0.06 0.0
0.38751191920162714 6.938893903907228e-18 0.0
0.3352618020299945 -3.469446951953614e-18 0.0
0.36192316205531716 0.06 0.04
0.3619231620553172 0.06 0.0
-0.36192316205531716 0.06 0.0
-0.335244821032008 -1.1796296425746478e-06 0.0
-0.3352618020299945 -3.469446951953614e-18 0.039999999999999994
-0.38745316199969926 -7.894682722445895e-06 0.0
-0.3619231620553172 0.06 0.04
-0.3092257782484355 0.06 0.04
0.28235075325640757 5.551115123125783e-17 0.039999999999999994
0.30922577824843556 -0.06 0.0
0.335244821032008 -1.1796296425746478e-06 0.04
0.3092257782484355 -0.06 0.04
0.36192316205531716 -0.06 0.0
0.38745316199969926 -7.894682722445895e-06 0.04
0.3092257782484355 0.06 0.0
-0.38751191920162714 6.938893903907228e-18 0.04
-0.28235075325640757 5.551115123125783e-17 0.0
-0.30922577824843556 0.06 0.0
0.6103276788742336 -0.06 0.0
0.593631917725493 -0.01946781888421301 0.0
0.6264545933043166 -0.021459100211208025 0.04
0.4889627886584896 -0.027603176797077415 0.020155725176282127
0.583287522480325 -0.023728770665855194 0.039999999999999994
0.5450807564691462 -0.01715484187473429 0.0
0.5409244119327052 -0.005150142234760652 0.04
-0.48912437490067595 -0.00041996788971368666 0.0
0.3619231620553172 -0.06 0.04
-0.657128141901218 0.06 0.0
0.9600374798207896 -0.027590413451835553 0.0
1.0 0.0 0.04
0.9589620457797374 -0.028177574718636023 0.04
0.5625923446839077 -0.06 0.04
0.5625923446839085 -0.06 0.0
0.7766984080639845 -0.02052537972713625 0.0
-0.438611990705585 -5.252150912499892e-05 0.0
-0.583287522480325 -0.023728770665855194 0.0
-0.9600486361512215 0.06 0.0
-0.95349853104827 0.02147987272312249 0.0
-0.9192992165657539 0.06 0.0
-0.9192992165657531 0.06 0.04
-1.0 0.06 0.0
-0.14473309882269625 -0.06 0.04
-0.14473309882269605 -0.06 0.0
-0.11621514710911887 -1.214306433183765e-16 0.0
-0.17269254160055947 1.1796119636642288e-16 0.0
-0.14473309882269625 0.06 0.0
-0.11621514710911884 1.214306433183765e-16 0.039999999999999994
-0.8353421249080566 -0.06 0.0
-0.8353421249080575 -0.06 0.04
-0.8973163514988121 0.02144006532192878 0.0
-0.897529295217204 0.022569895749215793 0.04
0.11621514710911887 -1.214306433183765e-16 0.039999999999999994
0.05860957814939871 -6.938893903907228e-17 0.0
0.05860957814939863 5.898059818321144e-17 0.039999999999999994
0.08769719539554144 0.06 0.04
0.6103276788742336 0.06 0.04
0.5139034646412424 -0.06 0.0
0.9096368506350345 -0.020963842829632554 0.04
0.805541091654972 0.020469431563422978 0.0
0.8052789150181434 -0.019306901564895652 0.04
0.8203038938742353 -0.020636147377884773 0.0
0.08769719539554144 -0.06 0.0
0.08769719539554167 -0.06 0.04
0.9192992165657531 -0.06 0.04
0.8164681441220105 0.022269284396602723 0.039999999999999994
-0.9103536180674616 -0.021283841161765512 0.04000000000000001
-0.8777357995360431 -0.06 0.0
-0.9096368506350345 -0.020963842829632554 0.0
0.8570647961856006 -0.015388027432140593 0.04
0.7921016077200956 -0.06 0.04
0.8353421249080566 -0.06 0.04
0.7921016077200962 -0.06 0.0
0.4135884955929341 0.06 0.04
0.43891524330526177 8.673617379884035e-17 0.0
-0.7921016077200956 -0.06 0.0
-0.08769719539554144 0.06 0.0
0.14473309882269605 0.06 0.0
0.1726925416005594 -1.214306433183765e-16 0.0
0.11621514710911884 1.214306433183765e-16 0.0
-0.029521960903255984 0.06 0.0
0.0 0.0 0.0
0.17269254160055947 1.1796119636642288e-16 0.04
0.14473309882269625 0.06 0.04
0.0 0.0 0.04
0.2006519843784229 0.06 0.04
0.22806385632140147 -1.1796119636642288e-16 0.04
0.22806385632140147 1.0755285551056204e-16 0.0
-0.6720046167250797 -0.020579604775701428 0.0
-0.7030120427199962 -0.06 0.04
-0.7030120427199952 -0.06 0.0
0.25547572826438003 0.06 0.04
0.30922577824843556 0.06 0.04
0.25547572826437986 0.06 0.0
-0.02952196090325599 0.06 0.04
0.2006519843784232 -0.06 0.04
0.14473309882269605 -0.06 0.04
0.2006519843784229 -0.06 0.0
0.14473309882269625 -0.06 0.0
0.2823507532564078 -5.204170427930421e-17 0.0
-0.36192316205531716 -0.06 0.04
-0.41358849559293387 -0.06 0.0
0.5372746904547943 0.02439300391790418 0.0
0.5139034646412424 0.06 0.04
-0.5139034646412424 -0.06 0.04
0.41358849559293387 0.06 0.0
-0.7171469290115033 0.021165332718839136 0.04
-0.7479973317145417 0.06 0.04
-0.7030120427199962 0.06 0.0
0.08769719539554167 0.06 0.0
0.029521960903255984 -0.06 0.0
-0.02952196090325599 -0.06 0.0
0.02952196090325599 -0.06 0.04
0.02952196090325599 0.06 0.0
0.029521960903255984 0.06 0.04
-0.47805793986482265 0.03008719549728311 0.01940109733029794
-0.4642419910175897 0.06 0.0
0.6103276788742331 -0.06 0.04
1.0 -0.06 0.04
0.9600486361512205 -0.06 0.04
0.9600486361512215 -0.06 0.0
-0.3092257782484355 -0.06 0.0
0.877735799536044 -0.06 0.0
0.8777357995360431 -0.06 0.04
-0.41358849559293387 0.06 0.04
-0.4135884955929341 0.06 0.0
1.0 -0.06 0.0
1.0 0.0 0.0
-0.14473309882269605 0.06 0.04
-1.0 -0.06 0.0
-0.9600486361512215 -0.06 0.04
-1.0 -0.06 0.04
-0.7921016077200962 0.06 0.0
-0.9192992165657531 -0.06 0.0
-0.9600486361512205 -0.06 0.0
-0.7921016077200956 0.06 0.04
-0.7766984080639845 -0.02052537972713625 0.04
-0.5625923446839085 -0.06 0.04
-0.5625923446839077 -0.06 0.0
-0.877735799536044 -0.06 0.04
0.7921016077200962 0.06 0.04
-0.3619231620553172 -0.06 0.0
-0.7479973317145423 0.06 0.0
-0.8777357995360431 0.06 0.04
-0.4135884955929341 -0.06 0.04
-0.46424199101758934 -0.06 0.0
0.513903464641242 -0.06 0.04
-1.0 0.0 0.04
-0.877735799536044 0.06 0.0
-0.30922577824843556 -0.06 0.04
[...]
POINT_DATA 584
VECTORS displacement double
0.028770740986923456 0.03272957509443786 0.01701878406686675
-0.0013938937527218638 -0.05528203705566881 0.0026123205609877896
0.0042112239096957025 -0.05161381334203987 0.025530058502324614
0.007129097756314149 -0.018902444760816678 0.00090671567103303
0.007777283039129362 -0.003627655340061765 -0.027796132799624944
0.011827582013989903 0.004460382208093656 -0.014364328318494787
-0.005275605640874408 -0.0025537734218160613 -0.023270624740946183
0.006875348767805758 0.003383613021390665 -0.011857466058241888
0.011807785961618434 -0.005675761757418207 -0.027388928569943995
-0.008321581064058475 -0.0029478397148852884 -0.0244289562152564
-0.0024729124484422736 -0.0057850910931698946 -0.016216268695171742
-0.008616438996930344 -0.00139191513286992 -0.029276480715190668
0.008106928648774958 -0.004933610822930962 -0.029856158139194944
0.010428281680209997 0.0014975911843477302 -0.02133560758840913
0.004437234576552458 0.0050185412737878965 -0.018983783983555408
0.006383744448473433 -0.0022263471155561762 -0.03213496216753631
-0.0003496375938550772 -0.0475909148979175 -0.017051401489371676
9.481554724806192e-05 -0.016195410807141226 -0.00553550766953597
0.034249031254162045 0.05117231872102648 -0.011686044124740494
0.024571330803503297 0.05138531785577831 -0.01617625183062754
-0.019661305618243818 -0.0060465970696429 -0.03229253121324678
-0.01683212820640944 0.005309782292604479 -0.015204323697601977
-0.012170811357651693 0.012489371032840235 -0.01494036067889073
-0.013857494925223429 0.007847248110600644 -0.01795275092515282
0.004114662189941411 -0.00795632835909735 -0.03184575939284291
0.008873062383487366 -0.015097421570803446 -0.025270739443221314
0.002330006724547532 0.0006585253329754621 -0.019598876411522737
0.013325791278106517 -0.044438475286256454 0.026279032438283022
0.005553697125738997 0.051421469614474115 0.016617711782375293
0.027948705697763573 0.06282666839070719 0.02542867066225336
0.023413930993135944 0.059979257175744045 0.028492081079805887
-0.004417382147964259 -0.0019775730860278205 -0.009821763055364122
-0.0016263529858330584 -0.011967437833677855 -0.010653455085555512
-0.0011118088755766664 -0.01644131237559284 -0.0019611219508133488
-0.02007113066505872 -0.01116354583024826 -0.008351921175690627
-0.007731231838765224 -0.005428189082064194 -0.01716171169150734
-0.004748969292913559 -0.005609737178624753 -0.008696053201539624
0.0025632454995728384 -0.001545885406965961 -0.007947044237621536
0.0019494567905814944 0.003988045819662255 0.013102811876406651
0.009847815298407439 -0.0029198358512733088 0.017648717551399646
0.012133024310955132 -0.0059182960910831766 0.014951553583660182
0.01273143689273298 -0.005427468709820156 0.015393135635936927
0.008789915397414558 -0.005691860828224376 0.01766939570754796
0.0003613894719865157 -8.001757186456928e-05 0.014325199710142856
0.012411009998674814 0.008259226791204792 0.009248756047981043
-0.016206406963888777 0.0018568572195734364 -0.024876248808057538
-0.01718819402786512 -0.011091570881283942 -0.008698382510785703
-0.016110326272582264 0.003162126824473897 -0.015505284345129993
-0.02179653194010447 0.006342277728113055 -0.020654813344821794
-0.01937054176276187 -0.0073885945920910455 -0.010725743550065031
-0.0021006854061934224 -0.016215382115566224 -0.017540477602534917
0.004448426781275931 0.006085087833868589 -0.02603826776606898
-0.004841028675749756 -0.011871479067448006 -0.030030908370743813
0.004292910420229164 -0.00789181007828738 -0.02883942111277179
0.006834639413032492 -0.013011606147690181 -0.016949271715203135
-0.033352006567164874 -0.047441870798209156 0.032547043026857285
0.00449659178499938 -0.042038879996828274 0.03129582867137442
-0.024029314890611393 -0.054754175306601705 0.029399775480912674
0.01594079043504676 -0.0018789175168091156 0.011297058218209428
0.014560464735486136 -0.0017904983164605736 0.0011426081660864625
-0.0030119488845202066 -0.0066017618403682275 0.003185549708533588
0.017021826744686913 -0.005446327692766428 0.0019216340785368814
0.012461414664724415 -0.00039118492232986004 0.004170489572605523
-0.013022788906978826 -0.005262868506607149 0.00422946650373766
-0.013750608636980959 -0.008923860342204956 0.009141807301581525
-0.012781801867842365 -0.008793994589151552 0.01609954742008429
-0.0005132509336459012 0.0009480612219141839 0.011286368668390058
-0.011590873232737163 0.0008479749648620154 0.017551523413366278
0.010108399000268378 4.646603429658353e-05 0.014877917001361918
-0.011072668628567654 3.555387404184862e-05 0.007921436601719909
-0.011735489091428722 -0.008448647225934955 0.009559241590957055
0.013908988432055465 0.03523488242971932 0.028273143183682313
0.012454386556859022 0.000386564425685706 0.012289065958558904
-0.011762184616781796 0.006579088379910411 0.004135470561145471
-0.04470760020666889 -0.04020722196526698 0.029142938631105095
0.009036106305833765 -0.005481734960551659 -0.008537929976638062
0.0008547224918896307 0.002761111550852441 -0.0004323262578713875
-0.008904498233730115 0.0037610646523539345 0.01544765714935724
-0.009991066380920403 -0.001617577153702615 -0.0009088199460235121
0.008970469825587942 8.409565180436985e-05 0.001895708369021891
0.006962963277151208 0.006147022798405677 0.005836016474413334
0.0026387936430197407 -0.0022220771876343597 -0.0020895326580737837
-0.011573940142951511 -0.00087084061043069 -0.01608532484491746
0.01269046149609927 0.02291394998507209 -0.005716880985549437
0.009833956841062204 0.028237755909721 -0.0013039081588134547
-0.00645725715880666 0.016124258602965517 -0.013963429970552764
-0.014097709813604394 0.029704752560868183 -0.029392768753130568
0.0072468787790778855 0.04917617470128635 -0.0005387537147803459
0.00577702496200358 0.009670059307959632 -0.009545973047198683
-0.003560960868071144 0.022384081171886384 0.0007408519626925414
-0.008456278130596826 0.022847451695764246 0.011042990787903257
-0.003107267541691295 -0.06941268329371723 0.011548766469155322
-0.021578345415056623 0.020106171228267414 -0.0007465688708889837
0.0046234946189301 -0.05754375993181156 -0.023588545020124373
0.01890221403445451 0.051206084278232075 -0.0032079112035923716
0.0148675169039976 0.02979679758855535 0.0037962134403405237
0.006677712561497894 0.026682402566635968 -0.0013792033348171409
-0.0022931955500457273 -0.014360944712791935 0.02835042798324868
-0.010924306070255796 -0.06232612216449503 0.016561199796160782
-0.024435180000645818 -0.03230330986234853 -0.0019895339030092784
0.006551677321969421 -0.05192270846101631 -0.004244554588882612
0.0004630316916817334 -0.00835273152464426 -0.014535475436698258
0.007116635425274363 -0.02153859438625634 -0.0005071061531300427
-0.015124401024923809 0.008626725721132213 -0.01613676181166147
0.01562666564880402 0.00253311865480735 -0.005870616203930133
0.014203676784930001 0.005617618001457887 -0.010024863649651425
-0.015410198715660614 0.009301547980565943 -0.006650258395018859
-0.0129809764607748 0.006547595491163602 -0.001559257689651498
0.014154610857375146 -0.00020915696433297215 -0.010048725498196123
-0.006840587711384683 -0.0026163335418678867 -0.007260185217675907
-0.002886537311234371 -0.004195016923514393 -0.007928248750396822
0.009317207017495565 -0.007087212444733401 0.001848490434737316
0.008984158628947584 0.0013756354933263776 0.002263395982504704
-0.012063448875039441 0.008781746989701026 -0.008275319818649478
-0.012538324588792211 0.005572200140940937 -0.00313891171319983
0.0009578807420402448 0.01046564400210618 -0.0052757091792573225
0.015435129482404749 0.004739520338894957 -0.011673454355564253
0.011183051541186253 0.002000630603586494 -0.01341508583843123
0.016479588810814863 0.001803676406496008 -0.004290024959501052
-0.0029461449402129187 0.008580526504790948 -0.005490637551184978
-0.005023091901492997 0.0017759020655111059 -0.010996705684175241
0.009955729202716996 0.0009168820169181014 0.004226169086985737
-0.01913572565729579 -0.006364208295938204 0.0046995764443154755
0.008997894708849055 0.0011606208320119062 -0.004481716067795971
-0.019507732452951156 -0.007021057494172397 -0.0019884039551665176
-0.018255899437737203 -0.006202523348399757 0.0026743700633179747
0.010505095406932853 -0.0042890655390673245 -0.003017325705450989
-0.012882424368577908 0.010865114011952302 0.005604776648802474
0.014630889450986758 -0.0017811371359833308 -0.00298349241495066
0.01686248238711587 -0.0007691551323209479 -0.009492426577473368
-0.0029045848299109472 0.0026414888006912273 -0.011584910412945881
-0.016641359119689936 0.003918352433537626 -0.011589252814586988
0.005676826122157849 0.0034404207965516766 -0.002661004848388635
0.008955661271673358 0.0018360392913153254 -0.010646473804036053
0.0010735272953869151 -0.0012440432011645174 0.014970477247676504
0.00913487589254016 -0.0021812543125194557 0.0012393297029308855
0.005930902890158767 0.00871210454695193 0.012133713058903392
0.014126982330788875 0.006714430915400922 0.013192927244398684
0.013795636899966475 -0.006915892212577884 0.015680942281369768
-0.0183070107922558 -0.003604134223034467 -0.0044834609996157885
-0.02489258012876736 -0.03264699614932591 -0.014074884891683029
-0.0011052995069496898 0.0015106874620544402 -0.01654438227859348
-0.0007317427895992773 0.013221922309370818 -0.018926273149750872
0.004246996262649036 0.0025024337809374255 -0.006718045795373919
-0.01112570152450527 0.0036686555626148547 0.004842736020473106
-0.017580792026202274 0.008340998601346454 0.002534647618096096
0.00445680665722288 0.008767124982944761 -0.029329976453395454
0.015247360784618875 0.005583500152273751 0.007791200164355347
0.007038092699278734 0.01538501623621902 0.0017300943315255394
-0.038106902757952414 0.03644383198962274 0.023321720773832856
0.003621626438991265 -0.018140036904368554 0.017588393439951618
-0.06668258056561215 -0.001059886752670313 0.016708128017919655
-0.07427693060222151 -0.020819504324753962 0.005790707462582192
-0.012735980030554364 0.07920936532259759 0.024363247903552872
-0.011882724323561715 0.002564635308977213 0.01104478007325537
-0.01222470667491705 0.0020830746749418783 0.008587492388843957
0.014268845952769596 0.0008967853330251308 0.004530870134307126
0.015503390351460155 -0.0031113787790714754 0.00858603547835291
-0.004847792792386587 -0.003984509677474057 0.008122444432985421
0.015537825211910973 -0.0008533819602967172 0.008121085506954175
-0.0017025016569291401 0.07542348546609208 0.023725190457458325
0.012317084035887315 0.09753096142331584 0.026419967363372012
0.011697506724655015 0.03022576875152326 0.03147816593696523
0.03324507651084061 0.05169422920722615 0.015264796814150324
0.00979132230915692 -0.0015395050771014969 0.0002157072199602687
0.015663946455224866 -0.0027135816458259453 -0.019405805848325478
0.012930801035071783 -0.0005693238202209672 -0.013773032374156323
-0.010487418087512109 -0.004169721052303774 -0.01101685057824654
-0.007103300662850039 -0.010440302407646741 0.0020066847123663455
-0.012461475349601783 0.0033374835689024035 0.016258906068502218
0.005530702523023858 0.0016135558519199417 0.0024124351046943653
0.0027399138041576043 -0.0011991578623573376 -0.018949383567960647
0.012748094163647902 0.0038961678015973613 -0.007278231914251497
0.012009591087522368 0.0029579966285596024 -0.01821389359468388
-0.015682927585473308 -0.003451828381890128 -0.005375178280558691
-0.019899160200293302 0.0014512076355642427 -0.002849522321711342
-0.015999131182885026 0.008731325881647746 0.0043724180241877676
0.0021881337467706883 0.00042343909737465495 -0.007523833281027613
0.0011289031674030505 0.029920930360748207 0.022209233766069453
-0.020633012869162155 -0.09876139882382447 0.053899009925466854
0.007008125951054354 0.011215199378772722 0.03912946012124449
0.010697202347967116 -0.00397741483714099 0.0012884640275569355
-0.013435593171904668 0.03853769912713062 -0.015450378994809584
-0.012145163910709467 0.008124937146648196 0.0010176853458390828
-0.012449158620362912 0.025586872784502744 -0.01919896227490103
-0.013141037221143202 0.0004047387670305879 -0.004641378669174937
0.011063083997197501 -0.004082990083983514 0.008387102117839818
-0.014549075752310396 -0.009238647672379304 -0.01380938244936327
-0.006775157056418968 -0.0016483372779782578 0.0005963610276097814
-0.006600062761763484 -0.003594058094445764 0.0032435766354199976
0.01247747757120212 -0.003443873385536902 0.015476780178624952
0.01611022654641876 -0.005611423691741167 -0.0005497168684020016
-0.0074417012581790435 0.0012818632851711682 -0.014274378254189939
0.015223663144799776 0.0027232006537443757 -0.021893264460759045
0.007561805950160735 0.0002435479912876068 0.014599135901063143
-0.011258889185473048 -0.000645245760149853 0.004012501191566975
0.014392349898414786 0.0007197313837533569 -0.01705122885723874
-0.012908040203436569 0.005681848716063148 0.01523625965633889
0.009970628552514661 0.000785174566011562 0.013490145817923824
0.010316189913206235 0.002378773559386643 0.01978735796796959
-0.0009829725799345348 -0.01880558410824294 -0.009572940057397755
0.0015587002637089263 -0.05067484631977153 -0.010836300997280729
-0.006551444768911082 -0.022115216606235538 -0.016652690200390802
-0.012220047328211898 0.00903018624607009 0.011536365039371105
-0.012496942437585246 0.010007985366278714 -0.0005941130253386956
-0.012051801342111174 0.010356151795405562 0.017629142033634155
-0.008184850984060077 -0.0007218975173564378 -0.009317211961311512
-0.020171892302524908 -0.00023310539146238863 0.01584948164135065
-0.02169795027533258 -0.005935597821043536 0.013523114469818182
-0.020003658082605312 -0.0013280679050988978 0.02232948184633918
-0.018146053854638453 -0.009488097927864519 0.014223192732695992
0.008903957241800781 0.0021972528369378253 0.009384678163230796
-0.006129692326979642 -0.002833787573343261 -0.014158565005658675
-0.003906869448490914 0.004838619564797798 -0.002266493957499236
0.0071117050697914646 0.005668937202419028 0.013688411261795224
-0.01127872937820558 -0.005902279596236508 0.016795996844813962
-0.0044927595175131676 -0.003045416936042935 0.0158383373666352
-0.012308092609349118 -0.004840642065231945 -0.0021497620502389197
0.007191153053373814 0.07927066831585185 0.009310722432910602
-0.07262364590943758 -0.07045908742425168 0.02227442746402862
-0.01143266848396023 -0.005628415868602171 -0.01915446530785255
-0.005147114489896417 -0.005874237132048282 -0.014666134924369635
-0.015028518878937773 0.002447966392102997 -0.020591500970146993
-0.01560155305558629 0.009535262353056363 -0.018575380450735222
-0.01667832125843069 0.003979921825877208 -0.017920704241529254
-0.0058840853329081245 -0.003898245966963122 -0.01993413585387496
-0.0094170299218735 -0.005713394602479896 -0.01809696528123809
0.00818800943340779 -0.0030121811612741456 0.010031994830533691
0.006895140775658835 -0.005975930352041892 0.0038972445366601024
-0.010589309633991205 0.0026006254383005465 -0.005401682847105496
-0.010674192346701706 0.008982532966230358 -0.020530191540530582
-0.013662480393527755 0.013784656852044209 -0.0035905272309443787
-0.014458934925525671 0.0060844830136130255 -0.011049570375552355
-0.004978252945378308 0.0035321195011887027 -0.013787392629925196
-0.012878883652208246 -0.002574893580610566 0.0014700218577673586
-0.014071590852279702 0.007039161092062158 0.007767644175929552
0.001749827090374499 -0.005494887366717482 0.004651695900210184
0.005876780873431232 -0.0030974456408526425 0.0034933253797076237
-0.008217297829228379 0.008827433106508886 -0.018381279485720357
-0.001493166298791928 0.01271981937917185 -0.02225874626027991
-0.006556204962589853 -0.003204281369779425 0.01072173394545197
-0.03814500888025441 -0.007885506896762672 0.006980739689936513
-0.0009376293787031811 -0.01393381601657024 0.014354597517636035
-0.029477717446069585 -0.017015117699096804 -0.005723702621509841
-0.03477773661042182 0.06354052187785071 0.020835184594108075
0.012849805372108536 -0.006870041920640812 0.04495736515227032
-0.012812193641685586 -0.0437493811955073 0.0182587237294813
-0.04278954777452209 0.08433854365875873 0.030642814359889473
-0.0043246649735061 -0.08500425472441184 0.008802409800574548
-0.007543846978713883 0.014354233655089447 0.002691116545440082
0.0008740016871502534 0.01651592298851888 0.005704604672561786
-0.009762401715388372 -0.11181524774820154 0.024489704549155087
-0.00899869579849205 -0.005126698592147609 -0.010620929947962638
-0.0038335811283856523 4.86941695061859e-06 -0.013164758844195422
-0.06314572238429307 -0.04695858781471946 0.016155896922785292
-0.028502471617543608 0.019485364219763057 0.005523106996098077
-0.0042106830761886324 0.0019755662559075007 0.00010998618322063216
0.002795651539075649 0.00034334582789179277 0.013696820709031556
-0.00980655604461324 0.0026550774095995735 0.013540671646349964
0.015613925579009808 0.03729728725124297 -0.019695088668179383
-0.03577987696981938 0.001279833323364537 0.014176351100563294
-0.007288676817022624 0.0021573461705818938 -0.015286496172847525
-0.009104925234607278 -0.004073503204507309 -0.0027941654209864
-0.007271398892498959 -0.004254822397241901 0.005550622652306093
-0.019275964803861085 -0.004244085760398824 0.013622539409078328
-0.005367230909924685 -0.0055477142944072196 -0.0032380852060615493
-0.03294208691021413 0.07979690079446852 -0.005646036196613577
0.028683897268784498 0.0006307841231559132 0.03401746255719256
0.012173026621279798 -0.02177246160462824 -0.005022420399594073
-0.011226678695176774 -0.031935560324498916 -0.0056651248912554745
-0.021296763915690985 -0.0078005965052405785 -0.014568713758676716
0.016817571957151674 0.06516145570136571 0.008110343363908997
0.013813577816997314 -0.019432283239287983 0.011117880701774286
0.0024792986001700265 0.008717833492698071 0.004784393557068853
0.002248097141789784 0.014729966696431486 -0.013422563561123922
-0.018712150255817545 -0.0077304911120406215 -0.000129898880154279
-0.017403480829293255 -0.008051311902840997 -0.0028570150364653503
-0.01914200121261577 -0.005119201328960791 0.008020280165999547
-0.011238379567429797 0.0006259951026745895 -0.0056684834424314
0.005141077765637122 -0.005180266819673891 0.019646524185660107
-0.006760803384857056 -0.003330323005172355 0.003091999992694586
-0.05538539048134681 -0.028873356476262872 0.0305467832109135
-0.010137150563639008 -0.008736896037043536 -0.01077290226773341
-0.007000061204009626 -0.00817630314019625 -0.001981970036470534
-0.00960958428371871 -0.0056106663461258765 -0.019949542336422054
-0.015614988525556461 0.0012429098399775284 -0.0010344633242645102
-0.011159833988265783 0.007233457930423222 0.013654364193335768
0.0050118179405261665 0.018362686461942487 -0.006772217999025387
-0.019002766424273777 0.009665980213433002 -0.022342727101914393
-0.00941606920381507 -0.0007501523403817196 0.011616107797944348
-0.009720242380754023 -0.002721942437091919 0.008620087265850361
-0.008856654698741294 0.003245127774369585 0.015949722734933967
-0.023965584963225678 0.048107790505961444 0.002347080083648893
-0.027674093911927593 -0.005695177790155303 -0.03982096238078166
-0.013770381446534129 -0.04623536401752061 -0.03190725657659485
0.02924409621407727 0.06840218967147683 0.006955628229991374
0.011793802816895637 0.0028147191543331554 0.00383664158615222
0.037266972971363714 0.06533917630677448 0.012540219847333695
0.010967563805822653 -0.046961444842942755 0.007212687427925352
-0.007906959512546115 -0.001561039919257533 -0.004001953298541973
-0.009635869655917288 0.003838539306431126 0.013761020459538354
0.013085700891946212 0.002406471074561723 0.0009160422995266849
-0.005730394890200973 -0.014107657845604003 0.00694482364115564
0.0021379281579877642 0.0035247392133504066 0.0021699094193484065
0.008461246375959732 -0.001186774436602139 0.004808838638983183
-0.011031018843506532 -0.021545184843082238 -0.030257315143510558
0.027734864404916626 -0.0008282245018244958 -0.03833720565831714
-0.015161444347737687 0.03325765506229771 -0.06680168097755437
-0.016591134398224534 -0.05346160191482551 0.019866534535628377