# vtk DataFile Version 2.0
Really cool data
ASCII
DATASET UNSTRUCTURED_GRID
POINTS 584 double
-1.0 0.0 0.0
-0.9600374798207896 -0.027590413451835553 0.04
-0.9589620457797374 -0.028177574718636023 0.0
-0.9553815213922792 0.019675326217199102 0.04
0.6719637381218919 0.02110482676547816 0.0
0.6414775595248179 0.020020515529780993 0.04
0.6571281419012174 0.06 0.0
0.6240641012293764 0.022292119262118645 0.0
0.687851041884645 0.021313940245698455 0.04
0.7030120427199962 0.06 0.04
0.657128141901218 0.06 0.04
0.7030120427199952 0.06 0.0
0.6885310613992013 -0.0196061899732657 0.0
0.6720046167250797 -0.020579604775701428 0.04
0.6407079554435648 -0.019738458112036637 0.0
0.7171469290115033 0.021165332718839136 0.0
-0.7921016077200962 -0.06 0.04
-0.7604373514312079 -0.019298436119384588 0.0
-0.7479973317145423 -0.06 0.04
-0.7479973317145417 -0.06 0.0
0.7030120427199962 -0.06 0.0
0.7030120427199952 -0.06 0.04
0.6571281419012174 -0.06 0.04
0.7479973317145417 -0.06 0.04
0.7325903506195701 -0.020274227246539274 0.0
0.7176321617908783 -0.019839353713154383 0.04
0.7604373514312079 -0.019298436119384588 0.04
-0.8488906624897727 0.019856366527450334 0.04000000000000001
-0.8052789150181434 -0.019306901564895652 0.0
-0.805541091654972 0.020469431563422978 0.04000000000000001
-0.8203038938742353 -0.020636147377884773 0.04
0.897529295217204 0.022569895749215793 0.0
0.8488906624897727 0.019856366527450334 0.0
0.8569454102823642 0.029774901726562965 0.04
0.8777357995360431 0.06 0.0
0.9553815213922792 0.019675326217199102 0.0
0.95349853104827 0.02147987272312249 0.04
0.9103536180674616 -0.021283841161765512 0.0
-0.5450807564691462 -0.01715484187473429 0.04000000000000001
-0.5372746904547943 0.02439300391790418 0.04
-0.49049502097572617 0.000359712426279548 0.04000000000000001
-0.5409244119327052 -0.005150142234760652 0.0
-0.48901428549955095 -0.02776609156780287 0.019771763033692314
-0.4642419910175897 -0.06 0.04
-0.43891524330526177 8.673617379884035e-17 0.04000000000000001
0.7479973317145423 -0.06 0.0
0.9600486361512215 0.06 0.04
1.0 0.06 0.04
1.0 0.06 0.0
0.9192992165657531 0.06 0.0
0.7479973317145423 0.06 0.04
0.7309057796957548 0.02177174945441851 0.039999999999999994
0.7479973317145417 0.06 0.0
0.7613659684934695 0.020945326906433456 0.0
0.7736855084518748 0.020914979208800512 0.04
-0.8570647961856006 -0.015388027432140593 0.0
-0.8569454102823642 0.029774901726562965 0.0
-0.8649535140731797 -0.02016838668923704 0.039999999999999994
-0.1726925416005594 -1.214306433183765e-16 0.039999999999999994
-0.22806385632140147 1.0755285551056204e-16 0.039999999999999994
-0.2006519843784229 0.06 0.0
-0.22806385632140147 -1.1796119636642288e-16 0.0
0.438611990705585 -5.252150912499892e-05 0.04
0.41358849559293387 -0.06 0.04
0.4135884955929341 -0.06 0.0
0.4642419910175897 -0.06 0.0
0.4782715374234063 0.0302584611690398 0.019894876072988572
0.513903464641242 0.06 0.0
0.49049502097572617 0.000359712426279548 0.0
0.46424199101758934 0.06 0.0
0.46424199101758934 -0.06 0.04
-0.8164681441220105 0.022269284396602723 0.0
0.48912437490067595 -0.00041996788971368666 0.04
0.4642419910175897 0.06 0.04
-0.8353421249080566 0.06 0.04
0.8649535140731797 -0.02016838668923704 0.0
0.8973163514988121 0.02144006532192878 0.04
0.5625923446839085 0.06 0.04
0.6103276788742331 0.06 0.0
0.5943416245309461 0.018901239582525348 0.04
0.5790918012159274 0.021628695864523574 0.0
-0.593631917725493 -0.01946781888421301 0.04
-0.6103276788742336 -0.06 0.04
-0.6407079554435648 -0.019738458112036637 0.039999999999999994
-0.6264545933043166 -0.021459100211208025 0.0
-0.6103276788742331 -0.06 0.0
-0.6103276788742336 0.06 0.0
-0.6240641012293764 0.022292119262118645 0.04
-0.6414775595248179 0.020020515529780993 0.0
-0.5943416245309461 0.018901239582525348 0.0
-0.5790918012159274 0.021628695864523574 0.04000000000000001
-0.5625923446839077 0.06 0.04
-0.6103276788742331 0.06 0.04
-0.5625923446839085 0.06 0.0
-0.7325903506195701 -0.020274227246539274 0.039999999999999994
-0.7176321617908783 -0.019839353713154383 0.0
-0.7309057796957548 0.02177174945441851 0.0
-0.7736855084518748 0.020914979208800512 0.0
-0.7613659684934695 0.020945326906433456 0.04
-0.6571281419012174 0.06 0.04
-0.6719637381218919 0.02110482676547816 0.039999999999999994
-0.7030120427199952 0.06 0.04
-0.687851041884645 0.021313940245698455 0.0
-0.029521960903255984 -0.06 0.04
-0.05860957814939871 -6.938893903907228e-17 0.039999999999999994
-0.05860957814939863 5.898059818321144e-17 0.0
-0.08769719539554167 -0.06 0.0
-0.08769719539554144 -0.06 0.04
-0.2823507532564078 -5.204170427930421e-17 0.04
-0.25547572826437986 0.06 0.04
-0.25547572826438003 0.06 0.0
0.38751191920162714 6.938893903907228e-18 0.0
0.3352618020299945 -3.469446951953614e-18 0.0
0.36192316205531716 0.06 0.04
0.3619231620553172 0.06 0.0
-0.36192316205531716 0.06 0.0
-0.335244821032008 -1.1796296425746478e-06 0.0
-0.3352618020299945 -3.469446951953614e-18 0.039999999999999994
-0.38745316199969926 -7.894682722445895e-06 0.0
-0.3619231620553172 0.06 0.04
-0.3092257782484355 0.06 0.04
0.28235075325640757 5.551115123125783e-17 0.039999999999999994
0.30922577824843556 -0.06 0.0
0.335244821032008 -1.1796296425746478e-06 0.04
0.3092257782484355 -0.06 0.04
0.36192316205531716 -0.06 0.0
0.38745316199969926 -7.894682722445895e-06 0.04
0.3092257782484355 0.06 0.0
-0.38751191920162714 6.938893903907228e-18 0.04
-0.28235075325640757 5.551115123125783e-17 0.0
-0.30922577824843556 0.06 0.0
0.6103276788742336 -0.06 0.0
0.593631917725493 -0.01946781888421301 0.0
0.6264545933043166 -0.021459100211208025 0.04
0.4889627886584896 -0.027603176797077415 0.020155725176282127
0.583287522480325 -0.023728770665855194 0.039999999999999994
0.5450807564691462 -0.01715484187473429 0.0
0.5409244119327052 -0.005150142234760652 0.04
-0.48912437490067595 -0.00041996788971368666 0.0
0.3619231620553172 -0.06 0.04
-0.657128141901218 0.06 0.0
0.9600374798207896 -0.027590413451835553 0.0
1.0 0.0 0.04
0.9589620457797374 -0.028177574718636023 0.04
0.5625923446839077 -0.06 0.04
0.5625923446839085 -0.06 0.0
0.7766984080639845 -0.02052537972713625 0.0
-0.438611990705585 -5.252150912499892e-05 0.0
-0.583287522480325 -0.023728770665855194 0.0
-0.9600486361512215 0.06 0.0
-0.95349853104827 0.02147987272312249 0.0
-0.9192992165657539 0.06 0.0
-0.9192992165657531 0.06 0.04
-1.0 0.06 0.0
-0.14473309882269625 -0.06 0.04
-0.14473309882269605 -0.06 0.0
-0.11621514710911887 -1.214306433183765e-16 0.0
-0.17269254160055947 1.1796119636642288e-16 0.0
-0.14473309882269625 0.06 0.0
-0.11621514710911884 1.214306433183765e-16 0.039999999999999994
-0.8353421249080566 -0.06 0.0
-0.8353421249080575 -0.06 0.04
-0.8973163514988121 0.02144006532192878 0.0
-0.897529295217204 0.022569895749215793 0.04
0.11621514710911887 -1.214306433183765e-16 0.039999999999999994
0.05860957814939871 -6.938893903907228e-17 0.0
0.05860957814939863 5.898059818321144e-17 0.039999999999999994
0.08769719539554144 0.06 0.04
0.6103276788742336 0.06 0.04
0.5139034646412424 -0.06 0.0
0.9096368506350345 -0.020963842829632554 0.04
0.805541091654972 0.020469431563422978 0.0
0.8052789150181434 -0.019306901564895652 0.04
0.8203038938742353 -0.020636147377884773 0.0
0.08769719539554144 -0.06 0.0
0.08769719539554167 -0.06 0.04
0.9192992165657531 -0.06 0.04
0.8164681441220105 0.022269284396602723 0.039999999999999994
-0.9103536180674616 -0.021283841161765512 0.04000000000000001
-0.8777357995360431 -0.06 0.0
-0.9096368506350345 -0.020963842829632554 0.0
0.8570647961856006 -0.015388027432140593 0.04
0.7921016077200956 -0.06 0.04
0.8353421249080566 -0.06 0.04
0.7921016077200962 -0.06 0.0
0.4135884955929341 0.06 0.04
0.43891524330526177 8.673617379884035e-17 0.0
-0.7921016077200956 -0.06 0.0
-0.08769719539554144 0.06 0.0
0.14473309882269605 0.06 0.0
0.1726925416005594 -1.214306433183765e-16 0.0
0.11621514710911884 1.214306433183765e-16 0.0
-0.029521960903255984 0.06 0.0
0.0 0.0 0.0
0.17269254160055947 1.1796119636642288e-16 0.04
0.14473309882269625 0.06 0.04
0.0 0.0 0.04
0.2006519843784229 0.06 0.04
0.22806385632140147 -1.1796119636642288e-16 0.04
0.22806385632140147 1.0755285551056204e-16 0.0
-0.6720046167250797 -0.020579604775701428 0.0
-0.7030120427199962 -0.06 0.04
-0.7030120427199952 -0.06 0.0
0.25547572826438003 0.06 0.04
0.30922577824843556 0.06 0.04
0.25547572826437986 0.06 0.0
-0.02952196090325599 0.06 0.04
0.2006519843784232 -0.06 0.04
0.14473309882269605 -0.06 0.04
0.2006519843784229 -0.06 0.0
0.14473309882269625 -0.06 0.0
0.2823507532564078 -5.204170427930421e-17 0.0
-0.36192316205531716 -0.06 0.04
-0.41358849559293387 -0.06 0.0
0.5372746904547943 0.02439300391790418 0.0
0.5139034646412424 0.06 0.04
-0.5139034646412424 -0.06 0.04
0.41358849559293387 0.06 0.0
-0.7171469290115033 0.021165332718839136 0.04
-0.7479973317145417 0.06 0.04
-0.7030120427199962 0.06 0.0
0.08769719539554167 0.06 0.0
0.029521960903255984 -0.06 0.0
-0.02952196090325599 -0.06 0.0
0.02952196090325599 -0.06 0.04
0.02952196090325599 0.06 0.0
0.029521960903255984 0.06 0.04
-0.47805793986482265 0.03008719549728311 0.01940109733029794
-0.4642419910175897 0.06 0.0
0.6103276788742331 -0.06 0.04
1.0 -0.06 0.04
0.9600486361512205 -0.06 0.04
0.9600486361512215 -0.06 0.0
-0.3092257782484355 -0.06 0.0
0.877735799536044 -0.06 0.0
0.8777357995360431 -0.06 0.04
-0.41358849559293387 0.06 0.04
-0.4135884955929341 0.06 0.0
1.0 -0.06 0.0
1.0 0.0 0.0
-0.14473309882269605 0.06 0.04
-1.0 -0.06 0.0
-0.9600486361512215 -0.06 0.04
-1.0 -0.06 0.04
-0.7921016077200962 0.06 0.0
-0.9192992165657531 -0.06 0.0
-0.9600486361512205 -0.06 0.0
-0.7921016077200956 0.06 0.04
-0.7766984080639845 -0.02052537972713625 0.04
-0.5625923446839085 -0.06 0.04
-0.5625923446839077 -0.06 0.0
-0.877735799536044 -0.06 0.04
0.7921016077200962 0.06 0.04
-0.3619231620553172 -0.06 0.0
-0.7479973317145423 0.06 0.0
-0.8777357995360431 0.06 0.04
-0.4135884955929341 -0.06 0.04
-0.46424199101758934 -0.06 0.0
0.513903464641242 -0.06 0.04
-1.0 0.0 0.04
-0.877735799536044 0.06 0.0
-0.30922577824843556 -0.06 0.04
[...]
POINT_DATA 584
VECTORS displacement double
-0.011097131228210853 -0.004793602714162867 0.03690188232476454
0.005453581696157944 0.005817014604633655 0.019177788821585166
-0.0002848374034325068 0.018969920467389417 0.02177526453578151
-0.013061484055686655 0.013133275488917443 0.032738218537401366
0.004261369650109392 -0.0035064854361043503 -0.0070240397595542755
0.005791153044548496 0.004499311954002451 -0.004372487471348516
0.01571207809897106 0.0024283721461631088 -0.005561980024142561
0.005187230734660498 0.007388525926869882 -0.0012247942365613265
0.004455411081243141 -0.006025711610056863 -0.010000894056864168
0.016623388403110614 -0.007612325471515803 -0.012599520243362895
0.016809654585571147 0.0040197999426212095 -0.006429544842440616
0.01555332181394413 -0.008253078366417138 -0.0109349338860522
-0.009826654385406421 -0.008746140414392737 -0.008003928870886374
-0.009048842049601097 -0.0061494461372636235 -0.006799030291527254
-0.008422157885623276 0.0028540663124153424 -0.004042585836739521
0.004878707074457185 -0.008789567038725058 -0.011721064780718046
0.019625742432281518 -0.0004827808689499748 -0.006132931049480626
0.007427889646254238 -0.0009889840293386206 -0.017639206708989493
0.015020737207618486 -0.006071828382426216 -0.009914891062349374
0.0209729417135483 -0.002230992585228518 -0.013186192637158051
-0.016934034803100278 -0.009169246643105661 -0.006314730040650907
-0.016740955444701763 -0.00585234828148479 -0.004650667430380836
-0.016140438913645173 -0.0037471567399500016 -0.005596406482246494
-0.01825479017333227 -0.0013181824663181315 -0.005297056971828279
-0.010008188227696611 -0.007363533538812451 -0.009539363007085359
-0.010207558183712728 -0.004735851919511129 -0.008633552740177082
-0.009970280067233907 -0.0017033299318988874 -0.00969487964157555
-0.007869158378443817 -0.0278569967519358 -0.014674827995460306
0.0005710131815696033 -0.03029695986707345 -0.016371908497961066
-0.007994241937674812 -0.020432189000315674 -0.027402814775138642
-0.00032406761138109103 -0.028533645965002845 -0.014694195883706343
0.009011092203654468 -0.0032296620163555717 0.001584608176916714
0.0064080843837491875 -0.007786774882885 -0.005927540917654342
0.007634726082416465 -0.01002806015434938 -0.005088350840820905
0.015588168565345636 -0.00830737669740085 -0.0009226422974850208
0.008006954352214046 0.016351810917954995 0.009921531217700891
0.005615014840493825 0.014419456711468232 0.010020274437840473
-0.010847218446984089 0.0020655612827428465 0.001463246400403859
-0.0051585699376848525 0.02941640213850138 -0.0025625047330570115
-0.024989597766766347 0.02372171462646428 0.00443190424642378
-0.0075615429854345145 0.0013002221721557766 -0.004388065479345966
-0.007464388730495374 0.0356336544493683 0.0028367276417869416
0.0035026655791731676 -0.0023280684221692665 -0.004038473231225381
-0.0015290477904982267 -0.03616638265102744 -0.00869624156828524
-0.010557242504807862 -0.014343659383355791 -0.00990229986108971
-0.016835922564244956 -0.005321010506026946 -0.005628234269844589
0.016842892781461727 0.009478470074702471 0.013308083556397144
0.018533682799555758 -0.0006108554587073009 0.017592095595973738
0.020187343275135668 0.0023848018372678585 0.017403944458877597
0.015581617635372828 0.004563916183948766 0.006321386803975899
0.015308884166572582 0.0025629610081507196 -0.016944993330550228
0.005579582806527098 -0.004744230523423656 -0.012846438619219388
0.015653937253970768 -0.0019262898116251146 -0.015877395622040723
0.004391576803157183 -0.0013835545644010827 -0.013275109712316631
0.0027463144463848745 0.0050808303029870605 -0.012813874555069304
-0.0030199965906068035 -0.02031106989729888 -0.006810172431081911
-0.014973856074349704 -0.022003191161080963 -0.010217777387399608
0.0006089446395297263 -0.005668729115785572 -0.004904247288499463
0.001451952722094211 0.0019490704019191176 0.012288826679663047
-0.00020009953988083808 -0.002798613074209634 0.00609554016657337
-0.00921018189253226 -0.0037464115422399602 0.008177282524128868
0.00015527994484864914 -0.005497256103605081 0.006616368958589898
0.0016422166595136515 0.010623374157665802 0.011356181297560133
-0.003180191659561904 0.0033370581221354996 0.00935804350515008
-0.0010733880168078446 0.0035655095913939673 0.008950531067156762
-0.006611599863950889 0.005016347179186205 0.008549540044468309
0.009981433237296378 -0.004661627133507097 0.01324264032016172
0.013743830929877916 0.004652916177799794 0.01508422041709641
0.0016250485566111383 -0.0032262764846014403 0.010631051579694344
0.01784495122966938 -0.00041997741390227436 0.014923654442941922
-0.009827546052741575 0.00477044868776398 0.009821083586355682
-0.010309959779448622 -0.036336442029963265 -0.025072824971868607
0.002986849431186238 -0.0063634604930088365 0.011028236785652339
0.016375347576641722 -0.005905089023541499 0.015456475014586253
-0.025938194936929653 -0.023080387767029528 -0.026078742796571772
-0.009895272906913707 -0.007643352637686417 -0.003283883302200829
0.005425712943697398 -0.004726131302928076 0.0013463988415125339
0.017417981182984123 -0.0005693097424614774 0.010812707895538233
0.014958761538158854 0.009548848812732737 0.0035980303454838
0.006975013323511542 0.0018477703174856798 0.0029767118951481513
0.0062817718806844015 0.005608962917190784 0.0044949172909896
0.003703883780899125 0.0007071112316381968 0.0021260610186805287
0.018702148793668123 -0.000872369679900745 0.008776151475756593
-0.022206642525921416 0.0005567111684980227 -0.0029959215233414244
-0.011322611880156964 -0.00595015023061811 -0.001041133143570052
0.010967270688413177 -0.000258339520971083 0.003183620964822698
-0.030155700151696895 -0.019401183313153745 0.04518091755203489
-0.024224390214285043 -0.07615885046122846 0.0008673751919290098
-0.026995996691806978 0.014232964167431961 0.019326523173080257
-0.011005592452099349 -0.010621920108081889 0.008946591210870351
-0.015037976329761527 -0.007540674836547384 0.003689135292709616
-0.03458540955338058 0.06187635213967929 0.014160366496556604
-0.024826889230254955 -0.019118923744410942 0.02131449657790213
-0.04591527366482462 0.058543401839837826 0.034792800265757595
0.001664396973595553 0.0006901484636825495 -0.02016984852592604
0.0074721476165322 -0.0031977655537682444 -0.008297526325947427
0.01951471634169039 0.0020564906714538134 -0.024366846000441932
-0.0037365561026265195 -0.01490608911997232 -0.03730676473902234
0.0004942205776585333 0.011344852405461342 -0.03065488942208177
0.04337590494508759 0.15092998725148585 0.023093173715212138
0.006371511480967134 0.042854676603322074 -0.004032041081143768
0.058973473937814457 -0.04283610367640543 -0.006504701387370182
0.030814769266771576 0.02530821147395371 0.0028426652791353284
0.009541729623300122 0.0023314956108648013 0.0014228500457088835
0.00358598250037725 0.004078964527686777 0.011569536718290797
0.001616235761153018 0.00883216215374698 0.011401227236796617
0.0093967293066084 0.006587104257982705 0.006785347517886804
0.011609705139056896 0.002103694711165127 0.007296912349837659
-0.0014499675666980031 -0.0029401528095413495 -0.0018797281829313665
-0.011203498464170025 -0.00032024178320592196 -0.00571013337263605
-0.010844349699906986 -0.005984017090445193 -0.0030196586643576996
0.00649655089022829 -0.0023470719574341394 0.008396743712160459
0.0043584476177897236 -0.006881444052066031 0.001471314939693698
0.015063425463848796 -0.01262999922078271 0.004541352050098948
0.016723829132164133 -0.01250624859189113 0.003998111452124257
-0.019984973099381374 -3.669402201879566e-05 -0.018558578164201818
-0.006066703895947004 -0.014852280648852906 -0.008055327658327116
-0.0045748569880437314 -0.009625686834813138 -0.008839532574218684
-0.005552080874910914 0.005780599642312454 -0.01064410702413843
-0.016636232852144415 0.0072299810508480505 -0.019275161278579724
-0.018658980192945488 -0.013669048581770496 -0.014637285239631604
0.004601732827276916 0.005266790587380342 -0.0034673038537055764
-0.0005052981802699092 -0.001984752815537712 0.00337900319011348
0.004151121883978286 -0.004170214040685793 0.0034737523906057384
-0.0012859707721660913 0.0010287154035231276 0.003777641245370609
-0.0006394063217497531 -0.006244617906784754 0.006156216777128637
0.004112040764679587 -0.0036695942841325274 0.007703202961817672
0.01579200278171115 -0.0026483563588296996 -0.005102859415531632
-0.002439686489036196 0.011504008750703166 -0.011558710137920956
-0.001273375900876408 -0.008273074007577898 -0.001095546189820094
-0.016922807074358084 -0.018816637098136576 -0.012578993296191483
-0.013799664687380206 0.006310043102557632 -0.0028665090380994287
-0.00758175618957431 0.006346352780929422 0.00010769360067744446
-0.006926074718858323 0.004898318539781083 -0.003183193236285129
-0.0009546362537671541 -0.005334526840825267 0.009779148330176795
-0.007088175426847759 0.0035805722326253575 0.0015195936673719585
-0.00694317030607189 0.005927171070950918 0.006281392239659007
-0.0018247502290423114 0.004423603413100385 0.006797293502632392
-0.007233878557759036 0.002973425716810647 -0.002248210888916705
-0.002305093794724837 -0.005521118028431647 0.006928207592285758
0.03194002990631781 0.11314260939925981 0.013297366744562904
-0.011215169436710188 0.01620273723405888 0.007308555383160957
-0.004095319758301859 -0.0047114454107852 0.013940552580952581
-0.017041450699234306 0.013820487685120467 0.006880558796619826
-0.01244434104325361 0.004400563778914741 0.0010569011643138772
-0.012641955710753893 0.0071468037933024855 0.0010996783674005256
-0.010103025461067996 -0.003292956373095471 -0.008783375581003968
-0.013076541140971619 -0.01342238070891239 -0.007978252565799166
0.0027279098341588333 -0.00019574396082241906 0.0044945041594252316
-0.029034531065754706 0.01709838442166847 0.040273395065929855
-0.02175484148546486 0.022175820272522847 0.03028137334463786
-0.028931235031447268 0.022200282258493634 0.016175593392178677
-0.017732290102600787 0.016929869466644796 0.022427745247549213
-0.030980386081480772 -0.0026749309210758834 0.05499036782511767
0.010180616253786474 -0.00010733990862132753 0.010128904783438428
0.009603063195257833 0.0020280733798239492 0.011692529075414388
0.0013649445770180261 0.002713306114047288 0.01479760284477507
0.0015546099481565825 0.0022484168994113627 0.012254939850447408
-0.005243692939034117 0.002001703977092588 0.01691209101517244
0.002456214611660186 -0.000730398067498593 0.014187407253593966
0.012450210333952947 -0.036399047626300016 -0.00407131997172261
0.014881407897889522 -0.034585329488697115 -0.0047444926886615535
-0.0161571711058298 0.02453977692028315 0.006374923944615376
-0.008514885871828769 0.02565095953355376 0.007115935874679114
0.004983457954971668 -0.003431308085844466 -0.009830170335759721
0.002250718967619488 0.005519677506404592 -0.0036381680452566866
0.004699642207879114 0.002947742470948127 -0.0036480568018244608
0.004946714764577983 0.00014599672070873086 -0.0050473303031807444
0.015936827416572284 0.008762549528651605 0.0031076921674132478
-0.006860484436508664 -0.0070489548712304095 0.005407553601631283
-0.01564995118995728 -0.001277767489292974 0.0015870181636171113
0.006941810602836544 -0.0008705241337783991 -0.010380639298248425
-0.014288023856106573 0.0034585681135786022 -0.008209561406368995
-0.011938149335058247 -0.0017144834461933001 -0.006233614768241089
0.005443739717419132 0.0014747152753425636 -0.008596826412768202
0.007772694952196447 8.382570785364856e-05 -0.00929100973179851
-0.022010724484609317 0.006838914697968986 4.97456767883328e-05
0.006699987383812546 0.0011970101828658948 -0.010163163024783844
0.002873370028755727 0.03035024316542527 0.008983495933263507
0.009459226643644134 0.002880162123018796 0.0008593803699669907
-0.002176492286863661 0.03298603977214809 0.009065502464299444
-0.011410309757416592 -0.006396441613793561 -0.0032281229009305883
-0.01941702816229814 -0.003004137453001729 -0.004920875628757745
-0.0227058160045295 2.3823759413521463e-05 -0.0024611309886860538
-0.018527001302301997 -0.004747370414127446 -0.0056502346995053725
0.013526729090952533 0.013612099724586935 0.011021019203445873
0.0015611206486101387 0.011011267720555672 0.011263017971710703
0.019532975376266692 -0.013063187645459415 -0.006934221529163183
-0.004285125132707535 0.004773005750724928 0.019750642132899097
0.00340663973909524 -0.0021152014884664614 -0.012485471202382468
0.0046980449381488374 0.001577616062504912 -0.01168972015875584
0.0032913811137948177 -0.0029369397318230388 -0.009222894646598827
-0.002017459109408434 0.008465583157601911 0.01568245207201601
0.0009256678573074284 0.006418344807857843 0.0047870764177263495
0.005487461918115962 0.00412403099158317 -0.01177769823925903
0.004241563860339789 -0.0010038291124457325 -0.01234387978229646
0.003703317686071189 0.0015958647685900625 0.004439411058401781
0.011356458630466573 -0.0037446863415678657 -0.017164759928922035
0.0055663171374118765 -0.010421504368939537 -0.008927835831384753
0.005939441148635065 -0.013825168404516799 -0.0098675775515143
-0.005011190575513978 -0.02200651521066949 0.005987305531699341
0.010198171407252 -0.019534333215069023 -0.0059846711953478625
0.02075859483242855 -0.018767075188519132 -0.002659177531212895
0.007980123345621913 -0.005604913554577054 -0.013168065906583613
0.013554800506772017 0.0017231548561282553 -0.005147537427541196
0.010461927127834114 -0.009702218401422335 -0.013531006422236208
0.000189491328790619 0.003845961084788839 0.0155396592063209
0.0034506979109912403 -0.0010118709119817122 -0.00581837749201079
0.008995223952466878 -0.0005666308459634261 -0.0100868308311155
0.0033843479270670896 -0.005142436000658187 -0.006944069817093365
0.0074403358531871045 -0.0017412019264215555 -0.009710803558079774
0.006150054688825581 0.0011111106326598746 -0.0038176520348910488
0.005195253982040078 -0.0033233832056702656 -0.0029454796923708716
0.0037718431229800987 0.007153270146178695 -0.003285907939794153
0.006544707675616413 0.006141741798745605 0.008842016753455079
0.01489675371762775 8.81547081745497e-05 0.013972269686935157
-0.0024729195821286782 0.0224467122020837 -0.0032303869036015656
0.015030226088712802 0.012946082006580466 0.010928373621619338
0.009861993202914334 0.0425422755277031 -0.01540095254945263
-0.006250372969361715 -0.040341153702726625 -0.042320111565577086
0.04476421621978612 -0.017811246295519233 -0.010612312640719167
0.0030586183611713406 0.0017351047749525536 -0.005149075878788631
0.006486549463058952 0.00607998291078766 -0.004864490240585459
0.007040711007477971 0.007334392937771971 0.001099684467936266
0.00959768214796528 0.002502665143020044 -0.005413189541182157
-0.0007403108482063734 0.0043552876068675625 0.006067728196988572
0.0016111489997422917 0.0005612669190078352 0.005842013856394121
-0.017096546487771726 -0.002778385659670361 -0.0015018883450726697
-0.035766637491102045 -0.004228025079204031 -0.003406236946153636
-0.012602247354621772 0.004738115976406974 -0.0031643398723921914
-0.025274146309465232 -0.0007978525560133059 0.011027569514782669
-0.02377971340995399 0.01210509986389671 0.003520357142203906
-0.01977110179951427 0.015145778454514171 0.005101324564784552
0.008677890558993467 -0.010668789762375888 0.0031508458175800464
-0.02013515859335695 -0.009369091732344454 -0.0016561740226830213
-0.022921373088082734 -0.010518740925038478 -0.0013208909720150049
-0.026221908503098124 -0.007434169378576573 -0.014773036722119328
-0.03195613374584743 -0.010481427174239423 -0.014786950448076801
-0.021561252208801646 0.0015005009494597277 0.009637678791078212
-0.0007649919881770178 -0.001255916029897182 0.013310102724042091
-0.004194591292391502 -7.545578191427397e-05 0.016706232198525024
0.007959937295358136 -0.002366454691279229 0.01831973282371926
0.01489954470602183 0.00608965515212217 0.010270456498055896
0.011889244505591793 -0.01242246705750874 0.0142493894017313
-0.02715816458085413 -0.032108052216295986 -0.04722445107462869
0.01201316679917634 0.034696843566729425 0.007036912622172718
0.010004485713869474 0.018043315265706242 0.012372643076547066
-0.02713238121872921 -0.026354958257566573 -0.05143804652654032
0.0051832207147955705 0.011780620740956772 -0.02037917859193432
0.016149858942422674 -0.02440440649814914 -0.013199632573906859
0.011270327385126087 -0.007452263012484005 -0.0009303407736561991
0.013174143628380782 0.0028789493129523325 0.0003139884932998584
0.01909835772749903 -0.002889805393832969 -0.015200256696173756
0.0028100092647695514 -0.008529161947583856 -0.0012095131984934807
0.0035492493226850605 -0.0318781354787634 -0.033505122336819626
-0.015384949448514377 0.010893834188784299 -0.005642878574015556
0.005397444322235225 0.012293133940535585 -0.006141408556551417
-0.003990096104248395 -0.029032927656267835 -0.007093813476771516
-0.008319247135203281 -0.012129443925380698 0.00466049635616633
-0.006261937691108604 -0.018924572750947766 0.03408227070188122
-0.020069703439657673 0.0023814077227411567 -0.0049019001784186495
0.010278195695498519 -0.004595514507468982 0.002751445764282536
0.011274888203422718 -0.0007413906863303674 0.008442354809193028
-0.002858504715871257 0.0002684928360886339 0.019753857266520996
0.005216947997205546 -0.00874143040776953 -0.0019920763200598156
0.010467823302255168 -0.005686991891104681 0.009651464751743366
-0.018586679475694264 0.004379023800943229 0.04461510907197365
0.01719784506973225 0.026076558873444716 0.004811719861618787
-0.04000299919470727 0.014220488764226966 0.014763054553432863
-0.010369614178453453 -0.029097808306624322 -0.01550473385089445
0.01885148904525668 0.013399608880125903 0.013207906785488725
-0.01943340190458666 -0.015840089655174763 0.058726348862585
-0.02847988733474114 -0.0024830022363415073 0.010805220741151268
-0.02587964424578149 -0.0012159763145910215 -0.005938186206365467
0.026835693496325395 -0.02783305099045147 0.010845713364201712
0.013969855069245848 -0.007215297371206961 -0.0019094949497219704
0.012398791089018493 0.0032327220236059895 0.006020329700164383
0.006355381888392858 -0.00584469488212933 -0.0005085977726348036
-0.02009491720237449 -0.0020802416858964733 -0.003042630492325427
-0.005663192604395173 0.024126346759922007 -0.002629503710610915
-0.009027026695372569 -0.0019639941214565026 0.006799124730296424
-0.026199883042754408 -0.033861487577900536 -0.026782765806049283
0.021764628943632843 0.0006093430784287202 -0.00661001581050092
0.021140385949767554 0.006175318352793458 -0.010354923903863904
0.020183643862227162 -0.0037488360815004108 -0.013541361587242118
-0.019487873278505017 0.006710053378063238 0.0011566500310119746
0.015299687437977256 0.00457424903306664 0.010706882504208409
0.02086874399982571 -0.03019360212621697 0.003831066330540425
-0.01692211978852767 -0.003332354048866846 -0.005332578206124947
0.012918270054607883 0.00034362910908783 0.012587250221398385
0.010936514384491289 -0.0006422921516442008 0.010803768481204387
0.009757643620216867 -0.006966016869658989 -0.01530477583458852
0.00742884635259151 0.02466054979886892 0.006334461132544752
0.0020941636300963948 -5.620764293860878e-05 0.018168625383346213
0.012369983018454274 -0.006733483056358134 0.009659391529095106
-0.0028609880176778102 -0.020458952675054612 -0.013743253530263984
0.0062724570280981275 -0.004277372009772825 -0.00946482555746558
0.0041231173154553675 -0.008347739722013416 -0.02574752142310967
0.0004716563228607374 -0.015490184775418385 -0.012202336205906569
0.014958019289484696 0.004042080123917822 0.007930719996439753
0.015477378692018526 0.0027955576796236787 0.011661755303794248
-0.0011169801960215222 0.0011892690432910762 0.005791541276686197
-0.013736181622884626 0.010818992478664849 0.014782820992990938
0.008796240678792134 -0.05431200392708381 -0.0023553436262047254
3.531415023453234e-05 -0.03673969520886391 0.012250336922016243
0.0031396290491477494 -0.016501378314612784 0.022454022077213955
-0.006273799922308516 -0.0076270143556740645 0.02965008615393331
-0.00680831071909497 -0.03378414316974655 0.03535248139777058