# vtk DataFile Version 2.0
Really cool data
ASCII
DATASET UNSTRUCTURED_GRID
POINTS 584 double
-1.0 0.0 0.0
-0.9600374798207896 -0.027590413451835553 0.04
-0.9589620457797374 -0.028177574718636023 0.0
-0.9553815213922792 0.019675326217199102 0.04
0.6719637381218919 0.02110482676547816 0.0
0.6414775595248179 0.020020515529780993 0.04
0.6571281419012174 0.06 0.0
0.6240641012293764 0.022292119262118645 0.0
0.687851041884645 0.021313940245698455 0.04
0.7030120427199962 0.06 0.04
0.657128141901218 0.06 0.04
0.7030120427199952 0.06 0.0
0.6885310613992013 -0.0196061899732657 0.0
0.6720046167250797 -0.020579604775701428 0.04
0.6407079554435648 -0.019738458112036637 0.0
0.7171469290115033 0.021165332718839136 0.0
-0.7921016077200962 -0.06 0.04
-0.7604373514312079 -0.019298436119384588 0.0
-0.7479973317145423 -0.06 0.04
-0.7479973317145417 -0.06 0.0
0.7030120427199962 -0.06 0.0
0.7030120427199952 -0.06 0.04
0.6571281419012174 -0.06 0.04
0.7479973317145417 -0.06 0.04
0.7325903506195701 -0.020274227246539274 0.0
0.7176321617908783 -0.019839353713154383 0.04
0.7604373514312079 -0.019298436119384588 0.04
-0.8488906624897727 0.019856366527450334 0.04000000000000001
-0.8052789150181434 -0.019306901564895652 0.0
-0.805541091654972 0.020469431563422978 0.04000000000000001
-0.8203038938742353 -0.020636147377884773 0.04
0.897529295217204 0.022569895749215793 0.0
0.8488906624897727 0.019856366527450334 0.0
0.8569454102823642 0.029774901726562965 0.04
0.8777357995360431 0.06 0.0
0.9553815213922792 0.019675326217199102 0.0
0.95349853104827 0.02147987272312249 0.04
0.9103536180674616 -0.021283841161765512 0.0
-0.5450807564691462 -0.01715484187473429 0.04000000000000001
-0.5372746904547943 0.02439300391790418 0.04
-0.49049502097572617 0.000359712426279548 0.04000000000000001
-0.5409244119327052 -0.005150142234760652 0.0
-0.48901428549955095 -0.02776609156780287 0.019771763033692314
-0.4642419910175897 -0.06 0.04
-0.43891524330526177 8.673617379884035e-17 0.04000000000000001
0.7479973317145423 -0.06 0.0
0.9600486361512215 0.06 0.04
1.0 0.06 0.04
1.0 0.06 0.0
0.9192992165657531 0.06 0.0
0.7479973317145423 0.06 0.04
0.7309057796957548 0.02177174945441851 0.039999999999999994
0.7479973317145417 0.06 0.0
0.7613659684934695 0.020945326906433456 0.0
0.7736855084518748 0.020914979208800512 0.04
-0.8570647961856006 -0.015388027432140593 0.0
-0.8569454102823642 0.029774901726562965 0.0
-0.8649535140731797 -0.02016838668923704 0.039999999999999994
-0.1726925416005594 -1.214306433183765e-16 0.039999999999999994
-0.22806385632140147 1.0755285551056204e-16 0.039999999999999994
-0.2006519843784229 0.06 0.0
-0.22806385632140147 -1.1796119636642288e-16 0.0
0.438611990705585 -5.252150912499892e-05 0.04
0.41358849559293387 -0.06 0.04
0.4135884955929341 -0.06 0.0
0.4642419910175897 -0.06 0.0
0.4782715374234063 0.0302584611690398 0.019894876072988572
0.513903464641242 0.06 0.0
0.49049502097572617 0.000359712426279548 0.0
0.46424199101758934 0.06 0.0
0.46424199101758934 -0.06 0.04
-0.8164681441220105 0.022269284396602723 0.0
0.48912437490067595 -0.00041996788971368666 0.04
0.4642419910175897 0.06 0.04
-0.8353421249080566 0.06 0.04
0.8649535140731797 -0.02016838668923704 0.0
0.8973163514988121 0.02144006532192878 0.04
0.5625923446839085 0.06 0.04
0.6103276788742331 0.06 0.0
0.5943416245309461 0.018901239582525348 0.04
0.5790918012159274 0.021628695864523574 0.0
-0.593631917725493 -0.01946781888421301 0.04
-0.6103276788742336 -0.06 0.04
-0.6407079554435648 -0.019738458112036637 0.039999999999999994
-0.6264545933043166 -0.021459100211208025 0.0
-0.6103276788742331 -0.06 0.0
-0.6103276788742336 0.06 0.0
-0.6240641012293764 0.022292119262118645 0.04
-0.6414775595248179 0.020020515529780993 0.0
-0.5943416245309461 0.018901239582525348 0.0
-0.5790918012159274 0.021628695864523574 0.04000000000000001
-0.5625923446839077 0.06 0.04
-0.6103276788742331 0.06 0.04
-0.5625923446839085 0.06 0.0
-0.7325903506195701 -0.020274227246539274 0.039999999999999994
-0.7176321617908783 -0.019839353713154383 0.0
-0.7309057796957548 0.02177174945441851 0.0
-0.7736855084518748 0.020914979208800512 0.0
-0.7613659684934695 0.020945326906433456 0.04
-0.6571281419012174 0.06 0.04
-0.6719637381218919 0.02110482676547816 0.039999999999999994
-0.7030120427199952 0.06 0.04
-0.687851041884645 0.021313940245698455 0.0
-0.029521960903255984 -0.06 0.04
-0.05860957814939871 -6.938893903907228e-17 0.039999999999999994
-0.05860957814939863 5.898059818321144e-17 0.0
-0.08769719539554167 -0.06 0.0
-0.08769719539554144 -0.06 0.04
-0.2823507532564078 -5.204170427930421e-17 0.04
-0.25547572826437986 0.06 0.04
-0.25547572826438003 0.06 0.0
0.38751191920162714 6.938893903907228e-18 0.0
0.3352618020299945 -3.469446951953614e-18 0.0
0.36192316205531716 0.06 0.04
0.3619231620553172 0.06 0.0
-0.36192316205531716 0.06 0.0
-0.335244821032008 -1.1796296425746478e-06 0.0
-0.3352618020299945 -3.469446951953614e-18 0.039999999999999994
-0.38745316199969926 -7.894682722445895e-06 0.0
-0.3619231620553172 0.06 0.04
-0.3092257782484355 0.06 0.04
0.28235075325640757 5.551115123125783e-17 0.039999999999999994
0.30922577824843556 -0.06 0.0
0.335244821032008 -1.1796296425746478e-06 0.04
0.3092257782484355 -0.06 0.04
0.36192316205531716 -0.06 0.0
0.38745316199969926 -7.894682722445895e-06 0.04
0.3092257782484355 0.06 0.0
-0.38751191920162714 6.938893903907228e-18 0.04
-0.28235075325640757 5.551115123125783e-17 0.0
-0.30922577824843556 0.06 0.0
0.6103276788742336 -0.06 0.0
0.593631917725493 -0.01946781888421301 0.0
0.6264545933043166 -0.021459100211208025 0.04
0.4889627886584896 -0.027603176797077415 0.020155725176282127
0.583287522480325 -0.023728770665855194 0.039999999999999994
0.5450807564691462 -0.01715484187473429 0.0
0.5409244119327052 -0.005150142234760652 0.04
-0.48912437490067595 -0.00041996788971368666 0.0
0.3619231620553172 -0.06 0.04
-0.657128141901218 0.06 0.0
0.9600374798207896 -0.027590413451835553 0.0
1.0 0.0 0.04
0.9589620457797374 -0.028177574718636023 0.04
0.5625923446839077 -0.06 0.04
0.5625923446839085 -0.06 0.0
0.7766984080639845 -0.02052537972713625 0.0
-0.438611990705585 -5.252150912499892e-05 0.0
-0.583287522480325 -0.023728770665855194 0.0
-0.9600486361512215 0.06 0.0
-0.95349853104827 0.02147987272312249 0.0
-0.9192992165657539 0.06 0.0
-0.9192992165657531 0.06 0.04
-1.0 0.06 0.0
-0.14473309882269625 -0.06 0.04
-0.14473309882269605 -0.06 0.0
-0.11621514710911887 -1.214306433183765e-16 0.0
-0.17269254160055947 1.1796119636642288e-16 0.0
-0.14473309882269625 0.06 0.0
-0.11621514710911884 1.214306433183765e-16 0.039999999999999994
-0.8353421249080566 -0.06 0.0
-0.8353421249080575 -0.06 0.04
-0.8973163514988121 0.02144006532192878 0.0
-0.897529295217204 0.022569895749215793 0.04
0.11621514710911887 -1.214306433183765e-16 0.039999999999999994
0.05860957814939871 -6.938893903907228e-17 0.0
0.05860957814939863 5.898059818321144e-17 0.039999999999999994
0.08769719539554144 0.06 0.04
0.6103276788742336 0.06 0.04
0.5139034646412424 -0.06 0.0
0.9096368506350345 -0.020963842829632554 0.04
0.805541091654972 0.020469431563422978 0.0
0.8052789150181434 -0.019306901564895652 0.04
0.8203038938742353 -0.020636147377884773 0.0
0.08769719539554144 -0.06 0.0
0.08769719539554167 -0.06 0.04
0.9192992165657531 -0.06 0.04
0.8164681441220105 0.022269284396602723 0.039999999999999994
-0.9103536180674616 -0.021283841161765512 0.04000000000000001
-0.8777357995360431 -0.06 0.0
-0.9096368506350345 -0.020963842829632554 0.0
0.8570647961856006 -0.015388027432140593 0.04
0.7921016077200956 -0.06 0.04
0.8353421249080566 -0.06 0.04
0.7921016077200962 -0.06 0.0
0.4135884955929341 0.06 0.04
0.43891524330526177 8.673617379884035e-17 0.0
-0.7921016077200956 -0.06 0.0
-0.08769719539554144 0.06 0.0
0.14473309882269605 0.06 0.0
0.1726925416005594 -1.214306433183765e-16 0.0
0.11621514710911884 1.214306433183765e-16 0.0
-0.029521960903255984 0.06 0.0
0.0 0.0 0.0
0.17269254160055947 1.1796119636642288e-16 0.04
0.14473309882269625 0.06 0.04
0.0 0.0 0.04
0.2006519843784229 0.06 0.04
0.22806385632140147 -1.1796119636642288e-16 0.04
0.22806385632140147 1.0755285551056204e-16 0.0
-0.6720046167250797 -0.020579604775701428 0.0
-0.7030120427199962 -0.06 0.04
-0.7030120427199952 -0.06 0.0
0.25547572826438003 0.06 0.04
0.30922577824843556 0.06 0.04
0.25547572826437986 0.06 0.0
-0.02952196090325599 0.06 0.04
0.2006519843784232 -0.06 0.04
0.14473309882269605 -0.06 0.04
0.2006519843784229 -0.06 0.0
0.14473309882269625 -0.06 0.0
0.2823507532564078 -5.204170427930421e-17 0.0
-0.36192316205531716 -0.06 0.04
-0.41358849559293387 -0.06 0.0
0.5372746904547943 0.02439300391790418 0.0
0.5139034646412424 0.06 0.04
-0.5139034646412424 -0.06 0.04
0.41358849559293387 0.06 0.0
-0.7171469290115033 0.021165332718839136 0.04
-0.7479973317145417 0.06 0.04
-0.7030120427199962 0.06 0.0
0.08769719539554167 0.06 0.0
0.029521960903255984 -0.06 0.0
-0.02952196090325599 -0.06 0.0
0.02952196090325599 -0.06 0.04
0.02952196090325599 0.06 0.0
0.029521960903255984 0.06 0.04
-0.47805793986482265 0.03008719549728311 0.01940109733029794
-0.4642419910175897 0.06 0.0
0.6103276788742331 -0.06 0.04
1.0 -0.06 0.04
0.9600486361512205 -0.06 0.04
0.9600486361512215 -0.06 0.0
-0.3092257782484355 -0.06 0.0
0.877735799536044 -0.06 0.0
0.8777357995360431 -0.06 0.04
-0.41358849559293387 0.06 0.04
-0.4135884955929341 0.06 0.0
1.0 -0.06 0.0
1.0 0.0 0.0
-0.14473309882269605 0.06 0.04
-1.0 -0.06 0.0
-0.9600486361512215 -0.06 0.04
-1.0 -0.06 0.04
-0.7921016077200962 0.06 0.0
-0.9192992165657531 -0.06 0.0
-0.9600486361512205 -0.06 0.0
-0.7921016077200956 0.06 0.04
-0.7766984080639845 -0.02052537972713625 0.04
-0.5625923446839085 -0.06 0.04
-0.5625923446839077 -0.06 0.0
-0.877735799536044 -0.06 0.04
0.7921016077200962 0.06 0.04
-0.3619231620553172 -0.06 0.0
-0.7479973317145423 0.06 0.0
-0.8777357995360431 0.06 0.04
-0.4135884955929341 -0.06 0.04
-0.46424199101758934 -0.06 0.0
0.513903464641242 -0.06 0.04
-1.0 0.0 0.04
-0.877735799536044 0.06 0.0
-0.30922577824843556 -0.06 0.04
[...]
POINT_DATA 584
VECTORS displacement double
0.01877873072475579 -0.014922175854599632 -0.0038627248133908465
0.02041002448464428 -0.016258784686004304 -0.0017452498430428269
0.018645662959040684 -0.006188289767471604 0.0014034762968243978
-0.00990126420981418 0.0262758055659382 0.0014390735552847111
-0.009577737213400696 0.003989779231045191 -3.7218373531706713e-05
-0.011043105662389478 0.025813338021302288 -0.009215447610523932
-0.007457313693002671 0.0240281575939534 0.0015170589796144067
0.002103970807471013 0.011923092554164074 0.006677132593090997
-0.012783335525916597 -0.01920072405249791 0.007353413899780294
-0.009463030992848787 -0.04849695734570865 0.012633376803343376
-0.014221669350040917 0.03961810038072412 -0.0031567199486236845
-0.007526775769126332 -0.02795906300141403 0.006292618753358564
-0.005617857737996366 0.013276641950478646 -0.003317793611891862
-0.01507339839486165 0.010653618017552146 -0.0012974819906570593
-0.003683373898324603 -0.017095163749948177 0.0011646658655528933
0.001844822632552132 -0.010347628229855863 -0.001984523334402926
-5.002386067211121e-05 0.044725014578787844 0.0031633139442601137
0.011124940328253062 -0.020718367509791148 0.0018730792311557542
0.011410286780206988 -0.06985229412212313 -0.000865402527042416
0.0020456567351445605 -0.04196704439416063 -0.008122236235118586
0.0025709498181769137 0.029930374111595076 0.0029381839228172077
-0.003776307528530491 0.04852666110439936 0.008419280716400794
0.007589886020703287 -0.017143322302656864 -0.00613182277155702
-0.0005780956800262156 0.012914506820055445 0.005359014509067894
0.002514652763790838 0.0072197999677256364 -0.001934193397912765
0.001035589954690963 0.024056484578075327 0.008712425747982177
0.013082176435988696 -0.01852518423054009 -0.0005579500564224858
0.018824346801072665 -0.02836990340773891 0.008294196234829507
-8.97181124925059e-05 0.012814842439872253 -0.0009772817116419153
0.014927525551895903 0.010126528750492352 0.005566627880634878
-0.0014375116010178553 0.008976930199271586 0.009648642457629922
-0.009383198073761818 -0.017196051762021384 0.001981271708154879
-0.008623036206256544 0.009005805766146485 0.0034636688527271134
-0.005404427770124787 0.003637395486380793 0.0015561375197144611
-0.0021058396913186343 -0.007720905177195643 0.003935238565686048
0.012612947335745165 0.004313371374141005 0.0016632605108130494
0.016992778624221855 0.009123357319959913 0.0005810095957750401
0.003075472355112206 0.018490633010731134 -0.00349583656676867
0.014098020062847516 -0.010253787023538293 -0.012304715094595324
0.013668690915176068 0.0274342148450375 -0.01511342021789901
-0.013421623315708594 -0.017105197872334534 -0.006740916612424773
0.011538780851030172 0.0031068697717961343 -0.0042046197958384626
-0.021600732083580324 -0.01340769718499945 -0.0036881484549593875
-0.0006080442491678327 0.04971339359984345 0.007437624560742014
-0.002613256594661429 0.0008274041970344209 0.02055831313726082
0.006209036926832297 0.008001758435414431 0.001724511730799414
-0.0037305803451409027 0.013963348052865294 -0.002097842764679483
-0.003816537092836236 0.03259145977822623 -0.008748681714771542
-0.008801785730854389 0.01875300987130119 -0.010905104775220812
-0.007251867482265325 -0.025778188684975768 0.004497238296847361
-0.002528191354621893 -0.007213960913493977 0.0005166896830603307
0.00965804835654717 -0.01640795460532068 0.007511682503366211
-0.005918194371849158 -0.00806219461838517 0.0014772954860154818
0.005616819289133015 -0.002352448657653971 0.0015103930261171582
0.00576712391032547 0.010452639073555611 -0.007633437715088098
-0.007097257123958745 0.0010969164180515939 -0.0019331984410677638
0.017661980480203697 -0.03362870813496561 -0.008866769581834077
-0.009954187665833007 0.017293619388597435 0.005730834696263854
0.002770720135905795 -0.01607322034237501 -0.01575645742671141
0.026851245738123013 -0.0023397384460815667 0.013841685875033437
0.008570084344199003 0.03434367766007316 -0.004726099007992778
0.014808420072825505 -0.0007257400355379257 -0.0052544730289873
-0.005685664386494641 0.02781995837595744 -0.0074137153520745375
0.016125085948642582 -0.04696469712751014 -0.015410439712278132
0.01535993354838095 -0.034880477531663984 -0.0004043350223473754
-0.011136546282910718 -0.011037757534580332 0.00597841825854224
-0.003073860437462465 -0.01141930156031083 -5.751061130943067e-05
-0.008256621269665981 -0.00930335631092941 0.006368216662773164
-0.0017581047765494653 -0.008420260197977248 -0.0014318932922279088
-0.005004743300783159 -0.005052102515799986 -0.0024022724748329425
-0.009325368442398008 -0.02861166183701743 -0.007179201095171287
0.01349578615759386 -0.00530504281560353 -0.0016654384286302589
-0.0028258256645018924 -0.010466997629739709 0.0044613046686481205
-0.0031501729876111076 -0.007161041170909341 7.843013160966795e-05
0.006532143362723047 -0.009714341955786496 -0.0085899961425527
-0.015872796459431564 0.0007509920071834096 -0.001993269245445558
-0.01068685697476104 -0.029834466691258537 0.007970423549982434
0.002151506254180315 -0.02018807876111843 0.0019957093162634256
-0.006166503143578025 0.029265812049084013 -0.0009747839163334017
0.018150222331654437 0.00029264373264328316 -0.006854828811623338
0.010116298170708448 -0.0006714510059977532 -0.002166451007034406
0.015980610521069447 0.020111970234094646 0.008026601637572791
-0.022932490034314346 0.061885145258446836 0.007764403953962186
-0.018901207619141762 0.05221369483170996 0.008450141079906734
-0.00584467628508163 0.022086823745301406 -0.006515821722142218
-0.01724951754063841 0.03951218639933195 0.003103272785320433
-0.02784717188700311 -0.01058275392755852 0.018754887170438602
0.006314946511674066 -0.06883951781896219 0.008237490076607025
-0.0038381640824644296 -0.007968178797094968 0.0029497217557995447
0.004294887549135539 -0.0025764979893990276 -0.004978780138472463
0.008604766584774068 -0.00803858841953016 0.0028189677596216433
-0.02050380022085431 -0.03214119480478898 0.004781801765395185
-0.03989826160706214 0.009565546729450229 0.004388199764543331
-0.015963328621067988 -0.01361414391367141 -0.004236927493744264
-0.015838336941737887 0.00651802535613738 -0.011605270224678782
-0.012002128459132516 0.0036099714709877067 0.004883451004038147
0.00778028325683122 0.01519966353469541 0.003974410316368346
0.025297346857934555 -0.003428773149137034 -0.0014607801127275637
0.01722934420945612 0.017840220225258663 -0.0032761488684560653
0.015624161866522405 0.03860014395001351 0.008237156666693819
-0.00753573377768803 -0.01505280917119551 -0.0005531618234048785
0.022627999589407845 0.020445683290357317 -0.0013845018041038456
0.009843154518012877 -0.007265853744664282 0.008729567756147107
0.03611700534419853 0.08244292042572965 0.027734671384703292
0.0027186347189383222 -0.05123477342263946 0.02150378533849183
0.0013086761243738254 -0.037780666998415854 -0.00031726549864007693
-0.023898162657434555 0.068796353694938 0.002379983164447425
-0.04437369453533713 0.09985490536476979 0.010767250812467986
-0.019375430093443762 0.01601085570194194 0.010703854890336074
-0.0175271087473907 -0.1386577215408051 0.04307243340355482
0.0013115292501562055 -0.08399278895793784 -0.004551865205721671
0.011137213945526307 -0.01625571886943827 0.002839451823258082
0.001623405400284176 0.011727858789088474 0.00047627452407160686
0.006987231094999712 0.00022498250379162865 -0.0018841006090518188
0.0026042722148743582 -0.004581406882918369 -0.0028312758803552165
0.015709477526405623 0.05631701753849316 0.0012383703349882666
0.0011212454015587464 -0.013966252241883368 0.008619534642366892
-0.008162485551336822 -0.020098681431907007 -0.01943765839621972
0.02155834145504949 0.013303415796795245 0.0026173693458861323
0.025385925267692573 0.08898610893106952 -0.021794528559843793
-0.015452716767154885 0.06163548595548114 -0.01694587713786229
-0.011703515215434224 -0.012489511109387 -0.0039046589523955948
0.00805664390329352 0.008426503960793787 0.006021135562810626
0.00911497008515086 0.017347454213835534 0.007016284409555136
0.0049530494678869524 0.014059639910119198 0.010757979683628863
0.0016619182212259786 0.021772108470818546 -0.00017579990826460063
0.015959711037871156 -0.026735921790996948 -0.005609736380023913
-0.026917002714612687 -0.05354257218835149 -0.008867340315004338
0.0294530882432846 0.008054330256689533 0.002757970454217889
-0.023837171000905554 0.009825125488985778 0.0013841944725209376
-0.014730123967896554 0.031896341783531526 -0.007518083617946867
-0.0086801075919183 -0.020765823154759222 -0.009369386663654264
0.005453739823083407 -0.0014884795680752544 -0.0010056280545710145
0.0032657886998289044 -0.05104644162157584 -0.009419901874263946
-0.019986774297178492 -0.0009377337994455693 0.0020594282256634847
0.004506027844667915 0.006476204449233065 -0.0038219164909722007
0.0095451491499706 0.0019482560236492022 -0.0018536051014294765
0.00672606340597929 -0.001114401131067753 0.006799677073357443
-0.009532037452837648 -0.011503071586091014 -0.004575064094223104
0.00540751741592081 0.04382654325367998 0.012334236059046039
-0.00048435014767265414 0.02157549394243746 0.00355766977392898
0.0029076255962507498 -0.010985833772649002 -0.0032194984012334344
-0.00370652955964534 -0.010180821801497998 -0.006176361489350841
0.0006656914274415219 -0.01583971973423023 -0.0006783968431885545
0.0037553802019277124 -0.0004013373316345835 0.0014342790814507193
0.0020610850960957943 -0.004188268969018761 0.0017632193003111587
0.007265794487483827 -0.013311670658679983 -0.000446600469979722
-0.010333849697279315 0.000994176156926493 -0.005335310409849448
0.007586706989506182 0.010195003456231823 -0.003973625358915147
-0.036159249177841545 0.005612776243369375 -0.005035556303746866
-0.005793973761818153 0.013956703914734046 0.0007427344340160094
-0.03776743426164135 0.019396518782454526 -0.008502617907161737
-0.03476645590432028 0.008356326949971574 0.00265643625486244
-0.042406026706650515 -0.013984944161829806 -0.0015046246102826688
-0.03222662760524611 -0.12968438388690823 -0.028931494400238244
0.0025380968078405567 -0.09246445120738712 -0.010486982100011973
-0.023440035097390753 0.027612074258309017 0.004211852268437572
0.012513874579647772 -0.0129266685113813 -0.0035872383631422155
-0.016361990686375304 0.04046564658250056 -0.0051089491210946905
-0.036778090211000175 0.035100631590574555 -0.005961509499785529
-0.005426709646619627 0.011838085478211455 0.0013082212228400216
-0.007111152204392336 0.013759076636737524 0.008436552464136814
-0.016040876044453443 0.014862543565273948 0.004291605733905372
-0.018045856659531064 0.03731661641022033 -7.322717251891846e-05
-0.020281619683017192 -0.04381736937904136 0.0016389158917543638
-0.0009068895131478361 0.011418001143459231 0.0074029247605553955
0.0022683456817052285 0.021563353494490782 -0.026949289617504993
0.012752618419459792 0.09768726765993585 -0.020072425431564636
-0.007042664039694909 0.05409904664671839 -0.01243493205998124
-0.0031178270451275684 0.028005044434134756 0.01379881737652572
0.013920012955595388 0.025715421685246237 0.009756124043532155
-0.002862804888003187 0.012864888248590042 0.0014056000089725184
-0.0007531951679042595 -0.010222055899925905 -0.012119720886494918
-0.0005801434027468038 -0.008835555537824382 0.0008931204601125516
-0.009364509611179449 -0.01600403624097024 -0.005541155630153689
-0.016867406728541066 -0.0409302772820021 -0.0029827869791722865
-0.00817475077193556 0.034995611154283936 0.004777271821254521
-0.007459724100838105 0.025073514103331866 -0.0095724999112821
0.0006832554773057365 -0.006972711241889647 -0.0009301730000264893
-0.0032771919666510626 0.005120217735203783 0.002770223951676178
0.005776381365060461 -1.2235151544996703e-05 0.001901391344434495
-0.01624229858280632 -0.003627705985606184 -0.002055033101780325
0.010509828539518897 -0.03153353566089505 -0.008440483944772514
-0.0008815363356409751 -0.03564976768793614 -0.0038671402016031836
0.007509292341832688 -0.018789323228665153 -0.007330046088839853
-0.01014311264376581 0.04394300005735118 -0.010198713950555298
-0.004884618386888763 0.017634222051008234 -0.0033701397027987878
0.0009372838415286311 0.03198760013460356 -0.0011902347761895335
0.011695221568279878 -0.037144882618340126 0.007819075664057642
-0.04568647894267886 -0.06027896128779466 -0.0032833662698333295
0.018072536556903104 0.04836432336279739 0.0006256463590111302
-0.024798675772349673 -0.03297989858741455 -0.0003579052152767477
-0.005759142727981584 -0.030252471416747185 0.005374113025101406
0.0333033551020222 0.01752765031834243 0.004365239155681924
0.013075109377500442 0.06368645353537956 0.010081924464061812
-0.04766304235409659 -0.09331679204836782 0.0357364862937822
0.028816544804025356 0.017711809480446008 -0.0009587908529144249
0.034244010801975526 -0.03346458477978279 0.0033850279147419654
0.01422924854313058 -0.030069219987705172 -0.013855135909574741
0.006536288154561237 -0.02185252630444999 0.0063572766228269205
-0.005768756890115777 -0.016124858847036835 0.0024672107351744062
-0.006129050259300593 -0.004423579441816368 0.0010875075704953828
-0.008191318073643908 0.0007729105699436702 0.0010675158260941176
0.01299459569938899 0.12192673179369798 -0.028044257054034412
-0.005249121740241194 -0.09568016597281594 0.02094189108264693
-0.020933406968886008 0.07546730671686815 -0.017641887739303586
0.0008236453493483317 -0.03813634870886035 0.013205459666903474
-0.027870113643277253 -0.06590808494996507 -0.01362739303799877
0.002316543908456865 0.10193014914593432 0.027215276987114175
-0.004882167593944181 -0.0411336374569336 -0.00356759934371629
0.024696569792051135 0.05959644557307493 -0.003861135834138202
-0.015274561279517032 -0.015016420737180812 -0.0007201468087449052
-0.0003725921628733933 -0.07069301426985333 -0.02106051220569956
0.002790674001390651 0.055631239394238405 0.00015150038482111158
0.0022774211476699795 -0.007853086457890937 -0.0012699092568756207
-0.004402685386554678 -0.019823399527432853 0.004145783224484762
-0.016557691811525506 -0.08905126660938681 -0.025978671501133036
-0.012356020549935079 0.02847182470525837 -0.00931917101814514
0.006731422719222556 0.0020163756720514526 -0.007485154874991323
0.03319555562143568 0.05907401378450789 -0.00688325290886123
0.023963455909516665 0.00420311765320851 0.004240619956746573
-0.013290177810349964 0.061127692630465746 -0.003332377773135242
0.01506607807774591 -0.08110259991948192 -0.00984844488151725
0.04041894659704862 0.06054999703459997 0.014293183027945498
0.026984701494064664 -0.11042761243377927 -0.02237570799805397
0.008533404810400113 0.021703094226387578 -0.0077153961850976735
0.00890383573152763 0.030479021368613565 -0.006845215895380907
-0.025895716646803575 -0.005637741091434981 -0.0007895824437790314
-0.00548593432325441 -0.009523102452987826 0.01663310148491182
-0.013658424474402605 -0.028307200142381615 -0.010062800573336701
0.004425845506934484 -0.010788798324906916 -0.004290254549069996
-0.0015155825887926265 -0.004074671491037795 -0.007704285792029137
0.0029030315841449767 -0.010524419727449254 0.0019425348446587638
0.001969773226751944 -0.021074289526305946 -0.000915821432796741
0.0027439661633536405 0.02168953252146612 0.003433673766703375
-0.003599124014398367 0.03267883621476521 0.008295289081881754
0.00483231524447144 -0.09387271572880436 0.028437871367267942
0.0031000390695817247 -0.05772895033718487 0.011781187696651957
0.00872385052792527 -0.01091900424644236 0.00021940133935436233
0.0007426386755471982 -0.005652560088085531 0.0037609769510837106
-0.02133831417090918 0.05082945124014137 -0.02105740882970341
-0.030722851246450873 0.04012679408199541 0.0027939281056822136
-0.01856267417060453 -0.004562097147902199 -0.004643996187205381
-0.03322469671202527 0.07054652192533116 0.005865783841561355
0.02574877316424297 -0.03661475160241134 -0.0033813540263100076
-0.004762142882046816 -0.007605747421900744 -0.004425871815591
-0.018037099734464778 0.00026821533581277974 -0.00407958265629336
0.04142235568711759 -0.05535495994237805 0.0011174892785440797
0.010505328380805805 -0.017407330442888832 0.0005310736502938553
-0.009317764707303876 0.0018428926110061984 -0.005672022523522369
-0.007012710215151792 -0.0014253210199843551 -0.0037856825187501174
-0.0030374597052069846 0.007073470294475379 0.0036136317504579323
-0.008328014480253273 0.03999777603148072 -0.010368145975940875
0.005166405198428237 -0.04818991322129446 -0.011650834065922376
0.029808652102183194 0.03593610576207818 -0.007647328144693383
0.021512784010603726 -0.09350210082820375 -0.00435933506246421
0.017471166871324124 0.07889166080904586 0.021349713473818567
-0.001629250778889672 0.01384003478445338 0.008264237529856354
0.0011684804626821736 0.06157966588801314 0.014446090724324059
0.018379231131031924 -0.02772481389550341 0.0041337100612370776
0.004028278480570567 -0.06388636634897098 -0.014006281666206682
-0.00275289402232968 -0.04251387362113256 -0.008919566455404707
-0.004395727281671971 0.08726812253587804 0.018413802655917227
0.013431742301638981 -0.05285618009604477 0.015486848025858311
0.0025346164701499597 -0.00899066942090105 0.005361211532546625
-0.0006783745666811854 0.060813141309371856 0.0057556455737240685
-0.035968534791928845 -0.0018696217795492246 0.006015819964119687
-0.004358986943053994 -0.010845167188620565 -0.0041790646158126315
-0.0044681174431198175 0.0492648895493458 -0.008935682603500994
-0.008537996387551598 -0.027346894273099838 -0.00196483052753969
-0.007303896569073612 0.006742468788509952 -0.003978926054624341
-0.04158407261426509 -0.011620577260926001 0.005211406704722806
-0.018217016014371718 0.09848453823666667 -0.03144092413648828
-0.016632844015315482 -0.03746048296199597 0.005091666042677032
-0.000352016648181633 -0.014970742561096146 0.007539402542076685
0.001612322149495346 -0.01528318189966767 0.006877628508948591
-0.00436012544519744 -0.04244601709797425 0.008529591900424793
-0.015904677636091172 -0.002815216693737613 -0.0030295927023905114
-0.002545957106308295 -0.022928764867703372 -0.005038328283863339
-0.010416405384818563 -0.046054207971857414 -0.005831376494524052
0.016481240541178947 0.06398590925048532 -0.021373440996523833
0.009971398847428696 -0.009814369477143488 -0.006677673859951885
-0.003580651676571613 0.013328346527050892 -0.0018066690020040526
-0.0027105758157528574 0.012195387896682763 -0.0020871709907150215
-0.005603214881944224 0.02589320751876006 -0.004182951975012144
-0.0003246281992208847 0.017360590014553826 0.006076494437216064
-0.004145502370865575 -0.010414854180976006 0.004110816469312973
0.008016250311206003 -0.029254064978546133 0.006225388400396497
0.007395121529477664 -0.010341024932594577 -0.0013475200313400953
0.006200712352099139 0.007101040317581287 0.00544045840931963
0.018777508629463206 0.004694370400975177 -0.0028063055606498562
0.008427758579670068 -0.018049190197990443 0.0020612692580620406
-0.016185651507523425 -0.014115866452879041 0.005164109476947285
0.005358789665327076 0.009702402002315997 0.003346844582434094
0.0045575288038398635 -0.03835610075035664 -0.005761726443787083
0.010266252103360072 0.019701297188397505 -0.010896853668082176
-0.032283538985326266 -0.06278374133394128 -0.00328635689965359
-0.003556174303588016 0.0055253827047037135 -0.0048089433820017935
0.018218075927612997 -0.04044216866892425 -0.004665009396101103
7.989569229424754e-05 0.07281865228768472 -0.024273075928046905
0.0157358625505922 0.01608015529766649 -0.006126274421818048
0.024506469435287063 -0.006403116123714491 -0.01073485436512353
0.0191047006488799 -0.0013131792774331234 -0.0033312132531269226
0.008051773432371281 0.0004736742982454278 -0.005060697624331417
0.00922224601920565 0.01800298000966679 -0.0066172805941454305
0.009612293190049448 -0.020952153949806866 -0.00015225986677546924
-0.006181795131357615 0.0018604462904038468 0.0017403249481354158
-0.003401229483531912 -0.01659751490246025 0.0039666595149189035
-0.016519570701165498 0.012073702897720055 -0.002285302507597586