# vtk DataFile Version 2.0
Really cool data
ASCII
DATASET UNSTRUCTURED_GRID
POINTS 584 double
-1.0 0.0 0.0
-0.9600374798207896 -0.027590413451835553 0.04
-0.9589620457797374 -0.028177574718636023 0.0
-0.9553815213922792 0.019675326217199102 0.04
0.6719637381218919 0.02110482676547816 0.0
0.6414775595248179 0.020020515529780993 0.04
0.6571281419012174 0.06 0.0
0.6240641012293764 0.022292119262118645 0.0
0.687851041884645 0.021313940245698455 0.04
0.7030120427199962 0.06 0.04
0.657128141901218 0.06 0.04
0.7030120427199952 0.06 0.0
0.6885310613992013 -0.0196061899732657 0.0
0.6720046167250797 -0.020579604775701428 0.04
0.6407079554435648 -0.019738458112036637 0.0
0.7171469290115033 0.021165332718839136 0.0
-0.7921016077200962 -0.06 0.04
-0.7604373514312079 -0.019298436119384588 0.0
-0.7479973317145423 -0.06 0.04
-0.7479973317145417 -0.06 0.0
0.7030120427199962 -0.06 0.0
0.7030120427199952 -0.06 0.04
0.6571281419012174 -0.06 0.04
0.7479973317145417 -0.06 0.04
0.7325903506195701 -0.020274227246539274 0.0
0.7176321617908783 -0.019839353713154383 0.04
0.7604373514312079 -0.019298436119384588 0.04
-0.8488906624897727 0.019856366527450334 0.04000000000000001
-0.8052789150181434 -0.019306901564895652 0.0
-0.805541091654972 0.020469431563422978 0.04000000000000001
-0.8203038938742353 -0.020636147377884773 0.04
0.897529295217204 0.022569895749215793 0.0
0.8488906624897727 0.019856366527450334 0.0
0.8569454102823642 0.029774901726562965 0.04
0.8777357995360431 0.06 0.0
0.9553815213922792 0.019675326217199102 0.0
0.95349853104827 0.02147987272312249 0.04
0.9103536180674616 -0.021283841161765512 0.0
-0.5450807564691462 -0.01715484187473429 0.04000000000000001
-0.5372746904547943 0.02439300391790418 0.04
-0.49049502097572617 0.000359712426279548 0.04000000000000001
-0.5409244119327052 -0.005150142234760652 0.0
-0.48901428549955095 -0.02776609156780287 0.019771763033692314
-0.4642419910175897 -0.06 0.04
-0.43891524330526177 8.673617379884035e-17 0.04000000000000001
0.7479973317145423 -0.06 0.0
0.9600486361512215 0.06 0.04
1.0 0.06 0.04
1.0 0.06 0.0
0.9192992165657531 0.06 0.0
0.7479973317145423 0.06 0.04
0.7309057796957548 0.02177174945441851 0.039999999999999994
0.7479973317145417 0.06 0.0
0.7613659684934695 0.020945326906433456 0.0
0.7736855084518748 0.020914979208800512 0.04
-0.8570647961856006 -0.015388027432140593 0.0
-0.8569454102823642 0.029774901726562965 0.0
-0.8649535140731797 -0.02016838668923704 0.039999999999999994
-0.1726925416005594 -1.214306433183765e-16 0.039999999999999994
-0.22806385632140147 1.0755285551056204e-16 0.039999999999999994
-0.2006519843784229 0.06 0.0
-0.22806385632140147 -1.1796119636642288e-16 0.0
0.438611990705585 -5.252150912499892e-05 0.04
0.41358849559293387 -0.06 0.04
0.4135884955929341 -0.06 0.0
0.4642419910175897 -0.06 0.0
0.4782715374234063 0.0302584611690398 0.019894876072988572
0.513903464641242 0.06 0.0
0.49049502097572617 0.000359712426279548 0.0
0.46424199101758934 0.06 0.0
0.46424199101758934 -0.06 0.04
-0.8164681441220105 0.022269284396602723 0.0
0.48912437490067595 -0.00041996788971368666 0.04
0.4642419910175897 0.06 0.04
-0.8353421249080566 0.06 0.04
0.8649535140731797 -0.02016838668923704 0.0
0.8973163514988121 0.02144006532192878 0.04
0.5625923446839085 0.06 0.04
0.6103276788742331 0.06 0.0
0.5943416245309461 0.018901239582525348 0.04
0.5790918012159274 0.021628695864523574 0.0
-0.593631917725493 -0.01946781888421301 0.04
-0.6103276788742336 -0.06 0.04
-0.6407079554435648 -0.019738458112036637 0.039999999999999994
-0.6264545933043166 -0.021459100211208025 0.0
-0.6103276788742331 -0.06 0.0
-0.6103276788742336 0.06 0.0
-0.6240641012293764 0.022292119262118645 0.04
-0.6414775595248179 0.020020515529780993 0.0
-0.5943416245309461 0.018901239582525348 0.0
-0.5790918012159274 0.021628695864523574 0.04000000000000001
-0.5625923446839077 0.06 0.04
-0.6103276788742331 0.06 0.04
-0.5625923446839085 0.06 0.0
-0.7325903506195701 -0.020274227246539274 0.039999999999999994
-0.7176321617908783 -0.019839353713154383 0.0
-0.7309057796957548 0.02177174945441851 0.0
-0.7736855084518748 0.020914979208800512 0.0
-0.7613659684934695 0.020945326906433456 0.04
-0.6571281419012174 0.06 0.04
-0.6719637381218919 0.02110482676547816 0.039999999999999994
-0.7030120427199952 0.06 0.04
-0.687851041884645 0.021313940245698455 0.0
-0.029521960903255984 -0.06 0.04
-0.05860957814939871 -6.938893903907228e-17 0.039999999999999994
-0.05860957814939863 5.898059818321144e-17 0.0
-0.08769719539554167 -0.06 0.0
-0.08769719539554144 -0.06 0.04
-0.2823507532564078 -5.204170427930421e-17 0.04
-0.25547572826437986 0.06 0.04
-0.25547572826438003 0.06 0.0
0.38751191920162714 6.938893903907228e-18 0.0
0.3352618020299945 -3.469446951953614e-18 0.0
0.36192316205531716 0.06 0.04
0.3619231620553172 0.06 0.0
-0.36192316205531716 0.06 0.0
-0.335244821032008 -1.1796296425746478e-06 0.0
-0.3352618020299945 -3.469446951953614e-18 0.039999999999999994
-0.38745316199969926 -7.894682722445895e-06 0.0
-0.3619231620553172 0.06 0.04
-0.3092257782484355 0.06 0.04
0.28235075325640757 5.551115123125783e-17 0.039999999999999994
0.30922577824843556 -0.06 0.0
0.335244821032008 -1.1796296425746478e-06 0.04
0.3092257782484355 -0.06 0.04
0.36192316205531716 -0.06 0.0
0.38745316199969926 -7.894682722445895e-06 0.04
0.3092257782484355 0.06 0.0
-0.38751191920162714 6.938893903907228e-18 0.04
-0.28235075325640757 5.551115123125783e-17 0.0
-0.30922577824843556 0.06 0.0
0.6103276788742336 -0.06 0.0
0.593631917725493 -0.01946781888421301 0.0
0.6264545933043166 -0.021459100211208025 0.04
0.4889627886584896 -0.027603176797077415 0.020155725176282127
0.583287522480325 -0.023728770665855194 0.039999999999999994
0.5450807564691462 -0.01715484187473429 0.0
0.5409244119327052 -0.005150142234760652 0.04
-0.48912437490067595 -0.00041996788971368666 0.0
0.3619231620553172 -0.06 0.04
-0.657128141901218 0.06 0.0
0.9600374798207896 -0.027590413451835553 0.0
1.0 0.0 0.04
0.9589620457797374 -0.028177574718636023 0.04
0.5625923446839077 -0.06 0.04
0.5625923446839085 -0.06 0.0
0.7766984080639845 -0.02052537972713625 0.0
-0.438611990705585 -5.252150912499892e-05 0.0
-0.583287522480325 -0.023728770665855194 0.0
-0.9600486361512215 0.06 0.0
-0.95349853104827 0.02147987272312249 0.0
-0.9192992165657539 0.06 0.0
-0.9192992165657531 0.06 0.04
-1.0 0.06 0.0
-0.14473309882269625 -0.06 0.04
-0.14473309882269605 -0.06 0.0
-0.11621514710911887 -1.214306433183765e-16 0.0
-0.17269254160055947 1.1796119636642288e-16 0.0
-0.14473309882269625 0.06 0.0
-0.11621514710911884 1.214306433183765e-16 0.039999999999999994
-0.8353421249080566 -0.06 0.0
-0.8353421249080575 -0.06 0.04
-0.8973163514988121 0.02144006532192878 0.0
-0.897529295217204 0.022569895749215793 0.04
0.11621514710911887 -1.214306433183765e-16 0.039999999999999994
0.05860957814939871 -6.938893903907228e-17 0.0
0.05860957814939863 5.898059818321144e-17 0.039999999999999994
0.08769719539554144 0.06 0.04
0.6103276788742336 0.06 0.04
0.5139034646412424 -0.06 0.0
0.9096368506350345 -0.020963842829632554 0.04
0.805541091654972 0.020469431563422978 0.0
0.8052789150181434 -0.019306901564895652 0.04
0.8203038938742353 -0.020636147377884773 0.0
0.08769719539554144 -0.06 0.0
0.08769719539554167 -0.06 0.04
0.9192992165657531 -0.06 0.04
0.8164681441220105 0.022269284396602723 0.039999999999999994
-0.9103536180674616 -0.021283841161765512 0.04000000000000001
-0.8777357995360431 -0.06 0.0
-0.9096368506350345 -0.020963842829632554 0.0
0.8570647961856006 -0.015388027432140593 0.04
0.7921016077200956 -0.06 0.04
0.8353421249080566 -0.06 0.04
0.7921016077200962 -0.06 0.0
0.4135884955929341 0.06 0.04
0.43891524330526177 8.673617379884035e-17 0.0
-0.7921016077200956 -0.06 0.0
-0.08769719539554144 0.06 0.0
0.14473309882269605 0.06 0.0
0.1726925416005594 -1.214306433183765e-16 0.0
0.11621514710911884 1.214306433183765e-16 0.0
-0.029521960903255984 0.06 0.0
0.0 0.0 0.0
0.17269254160055947 1.1796119636642288e-16 0.04
0.14473309882269625 0.06 0.04
0.0 0.0 0.04
0.2006519843784229 0.06 0.04
0.22806385632140147 -1.1796119636642288e-16 0.04
0.22806385632140147 1.0755285551056204e-16 0.0
-0.6720046167250797 -0.020579604775701428 0.0
-0.7030120427199962 -0.06 0.04
-0.7030120427199952 -0.06 0.0
0.25547572826438003 0.06 0.04
0.30922577824843556 0.06 0.04
0.25547572826437986 0.06 0.0
-0.02952196090325599 0.06 0.04
0.2006519843784232 -0.06 0.04
0.14473309882269605 -0.06 0.04
0.2006519843784229 -0.06 0.0
0.14473309882269625 -0.06 0.0
0.2823507532564078 -5.204170427930421e-17 0.0
-0.36192316205531716 -0.06 0.04
-0.41358849559293387 -0.06 0.0
0.5372746904547943 0.02439300391790418 0.0
0.5139034646412424 0.06 0.04
-0.5139034646412424 -0.06 0.04
0.41358849559293387 0.06 0.0
-0.7171469290115033 0.021165332718839136 0.04
-0.7479973317145417 0.06 0.04
-0.7030120427199962 0.06 0.0
0.08769719539554167 0.06 0.0
0.029521960903255984 -0.06 0.0
-0.02952196090325599 -0.06 0.0
0.02952196090325599 -0.06 0.04
0.02952196090325599 0.06 0.0
0.029521960903255984 0.06 0.04
-0.47805793986482265 0.03008719549728311 0.01940109733029794
-0.4642419910175897 0.06 0.0
0.6103276788742331 -0.06 0.04
1.0 -0.06 0.04
0.9600486361512205 -0.06 0.04
0.9600486361512215 -0.06 0.0
-0.3092257782484355 -0.06 0.0
0.877735799536044 -0.06 0.0
0.8777357995360431 -0.06 0.04
-0.41358849559293387 0.06 0.04
-0.4135884955929341 0.06 0.0
1.0 -0.06 0.0
1.0 0.0 0.0
-0.14473309882269605 0.06 0.04
-1.0 -0.06 0.0
-0.9600486361512215 -0.06 0.04
-1.0 -0.06 0.04
-0.7921016077200962 0.06 0.0
-0.9192992165657531 -0.06 0.0
-0.9600486361512205 -0.06 0.0
-0.7921016077200956 0.06 0.04
-0.7766984080639845 -0.02052537972713625 0.04
-0.5625923446839085 -0.06 0.04
-0.5625923446839077 -0.06 0.0
-0.877735799536044 -0.06 0.04
0.7921016077200962 0.06 0.04
-0.3619231620553172 -0.06 0.0
-0.7479973317145423 0.06 0.0
-0.8777357995360431 0.06 0.04
-0.4135884955929341 -0.06 0.04
-0.46424199101758934 -0.06 0.0
0.513903464641242 -0.06 0.04
-1.0 0.0 0.04
-0.877735799536044 0.06 0.0
-0.30922577824843556 -0.06 0.04
[...]
POINT_DATA 584
VECTORS displacement double
0.010142204806916662 -0.007823025475615163 0.016079743632279663
0.02687289850187712 -0.017573234033842994 -5.7725448958774976e-05
0.03345576378900099 -0.019072441911786468 0.028079943220945314
-0.014558604867974485 0.03134718044984102 0.003429644999912539
-0.019993056579348897 -0.017322448212322598 0.0041050239035830315
-0.004804861743015332 0.011386724624431346 0.004687380577168573
-0.048883979887662445 -0.0030659300339578336 0.0025711607725573014
-0.02596427631347073 0.012909319125640176 0.019878392745118136
-0.003080192922482511 -0.021057831857171992 0.0013867359375200783
-0.04997830446009393 -0.01285719020516092 -0.006810798909481405
-0.03783456708250273 0.009489967966787324 -0.007202749855990995
-0.05994734828290693 -0.025600476490957706 -0.004917747042151561
-0.009341478764843491 -0.008227871344527026 -0.0030197456488461204
0.003537049366490753 -0.008792820790866615 0.006250946295031345
-0.029015615787982476 0.009137211311637975 0.01194769063096112
-0.010134284501270876 -0.022256231306673518 -0.001036554968487798
-0.007902664645156977 -0.011774236907221894 0.0007794422559378368
0.038777351207850794 -0.0018785891454402971 0.013564809015573004
-0.01622930981134894 -0.02143611105528895 0.007759134915430389
-0.01554525735522476 -0.005955315193181378 -0.0014729175143234376
-0.0278383342958691 0.006204792892260154 -0.012296358778664904
-0.013835738496747305 0.005212237974365992 -0.0031103915306619472
-0.02973768763641422 0.038604767901929765 0.0015029946870008426
-0.02365946867763803 -0.0011736654652843206 0.0021763774874737035
-0.00235776575625392 -0.0052597765127218865 -0.005804414952424827
0.00653370769196198 -0.0036109633374137506 0.0032465028170246073
0.002484307411404056 -0.0023527748467921127 -0.0009327736477825773
-0.000311594087264056 0.008766549231437869 -0.008033675280313296
0.051109831147628036 -0.006860638582271148 -0.009510393102679099
-0.00763385586497009 -0.022292145032793146 0.001435321659057631
0.046473237355095134 -0.006902100789346082 -0.0018855854113524963
-0.01137568608262001 -0.007047201054029944 0.005247584116564004
-0.014863599121217838 0.010411928350192525 -0.0009259865508064551
-0.0018685882716268814 0.008405859410565136 -0.010010259637901095
-0.050470023974639684 0.0028981326947445586 0.0031796121770433106
-0.0024916512083340337 -0.004437484281943437 0.016903542244494273
0.007431421446194421 -0.0069308549437905875 0.01440031699388026
-0.028656506556555328 -0.00038854409252800387 0.008895769919967138
-0.010673563164751109 0.016334603506614982 0.0021777315046190575
-0.010569633914573598 0.0006511641267734629 -0.00024399994722318734
0.00011332658522117305 0.012046568745870229 0.018639303926938224
-0.0062171690806056635 0.010724465200237234 -0.0022857330790426148
0.01184810271855346 0.012790895070787487 0.021039953717299404
0.006369522002469426 -0.016783871160083882 0.019034675784166993
0.0010339092878258436 0.0003332765618424391 0.011953748538289028
-0.028860307324451787 -0.001986221367005402 -0.005082873236300884
-0.04135258921035205 0.0030417555223427 0.010215979349997711
-0.04453834801402299 0.006646725248758279 -0.002216505909886212
-0.055673866279758066 0.00019744011241217826 -0.001746243878144279
-0.052139921085307725 0.0010762140265354436 0.004912633585913199
-0.06662735136312861 0.009644241523817779 0.007071218375408601
0.002255153882908608 -0.010368656209350933 -0.0012297541583585253
-0.07253332131335857 0.00818868607337735 0.0008324354083832449
-0.008392977978314644 0.011030977098089572 -0.00319907089637884
0.000755081051102394 0.005334987692115779 -0.0033999736116618663
0.04800301453987563 0.018894347753041853 -0.025321304487327036
-0.007037968169398853 -0.01975396662825473 -0.022359461134916384
0.0497814234479289 0.004709390004275847 -0.004139045200419897
-0.021955250066370193 0.006632346833592859 0.03206338452200765
-0.03167078178683043 -0.02494153288202528 0.012098288151477891
-0.039712075623087845 -0.010159562202208062 0.03250387907707964
-0.04338097499718458 -0.020127249054089472 0.012234303304534344
-0.006547216723540637 0.002512493228009453 -0.01923585521327697
-0.018506403999086544 0.0035948388171549235 -0.012665907617325587
-0.042738966252404136 0.00953256530295586 -0.020848885515380267
-0.04515154108024357 0.02238507468559697 -0.03790357577222194
-0.019736799077941604 0.003644719403665115 -0.01610338072822097
-0.026505467277867584 -0.005273423168668803 -0.0018102839262624949
-0.021513041248277597 0.0034207109602271764 -0.01802065580250022
-0.027379799199466683 0.009622234335540096 -0.01135450723701364
-0.02483691976530753 0.018351532724180834 -0.0237388148463955
0.002831911873028549 -0.009230731123860697 -0.006523096485381992
-0.008609641537821998 -0.005148574373587179 -0.015910261554652083
-0.01569423165263512 0.0017720945764973053 -0.009442291335141762
0.009482466514310093 0.008288013634160334 -0.02029000725063188
-0.028060489926155376 -0.018901751555253175 -0.0039113066025184455
-0.0008995177415634928 -0.006491898988741042 -0.002242004189335209
-0.025691428882148305 0.007194876645919037 0.00694984899359756
-0.05225572176884327 0.013733287111572087 0.01788766169635058
-0.009325184267508778 -0.002524276338676853 0.0132808615295502
-0.02968572867920443 -0.003744869290054999 0.018938954509787543
0.000583768791788921 -0.01130385294999804 -0.007810615970321697
-0.018734018050172975 -0.012503291953374464 -0.007490743184930001
0.017019816847514233 0.004510712748648449 -0.012769052877330966
0.010971810511883305 -0.004128093838305429 -0.02496523744467435
-0.017242744611765202 -0.012101677167210117 -0.022872998384386115
0.0027734165111507254 -0.011985381086483449 -0.01445104608688349
-0.006041949000320483 -0.007436672823660833 -0.011440660543394047
-0.007507757578321389 0.005311585205743331 -0.013434661027601838
-0.007060005358657282 -0.011661386802317996 -0.017688718098102487
-0.01013644335244728 -0.00578424959183754 -0.010966269331898287
0.0014432397086220586 0.008316937018646659 -0.007012620622718768
0.009016016254882974 -0.010074492641331256 -0.008753627368283685
-0.006757155782878927 0.001808285500801251 -0.012500420392657146
0.02579121717122139 -0.019253390637644075 0.008682452438723155
0.025816530656636066 -0.0008796564139973199 0.004255530246412642
-0.006356988941843095 0.012614536443266456 0.03268292094540714
0.00423153516882006 0.001731086618823965 0.01972020333189808
-0.0046906184544577454 -0.0023110984959941513 0.014549227488213782
0.004762753859152785 -0.00024135271286466963 -0.0007185649853061098
-0.006512604155012403 -0.0030916612192188717 0.0010150998932249558
-0.003713326163405412 0.022076439482364416 0.02337457046499757
-0.012291384408305099 0.021308031932790274 0.01863012981218961
-0.005431878019088583 -0.00240752921536869 -0.017956363569559503
-0.029233759134080935 -0.001059997260668185 -0.021628654802735656
-0.036123991443157734 -0.00586750945897154 -0.02642550814198941
-0.01216992792491883 0.008655872873833797 -0.01590410829982426
0.0036548668762865304 0.007150221681196922 -0.005300997092262789
-0.02705985472929964 -0.010313605314771988 -0.02134002088650984
-0.012537468780723534 0.009614994605746555 -0.007413280527731514
-0.02812879668614257 0.003124686920369887 0.005010760736499606
-0.027485616497508105 -0.00427409366280975 0.0032887002548430493
-0.017963881298180693 -0.007148969705024486 0.0241227646546399
-0.012347659887065416 0.011530273350106576 0.01331198296672357
-0.02859701839561233 0.014318593470990276 0.01999806568814286
-0.003937949118857993 0.029101902713004398 -0.012019329250309957
-0.024372365747874335 0.016526421692528437 -0.03453693935872557
-0.016318730150609504 0.009250178706377007 -0.02857006836993153
-0.010719049190677832 0.0014376743414886753 -0.008175138342004628
0.004719351305561171 0.010214774127890212 0.0037309789885081146
-0.007394637316727613 0.014116169264149412 -0.015012606560701068
-0.00838894833784772 0.0026742658270805467 0.004393262376233633
-0.024166606802030775 -0.012734248179451688 0.019028679694940195
-0.008890558643622775 -0.0070945069713606364 0.014624684185539753
-0.013776014180110749 -0.006358150639041562 0.019556513670154596
-0.03040813242583407 -0.028097874098260627 0.020154735390995885
-0.01276499513729299 -0.00478802462254123 -0.00045620896805178873
-0.018187893219760377 0.012320889774184614 0.02586616638138573
-0.0006147644007599669 0.0015745222685157744 -0.006248345492173431
-0.033523967087799096 -0.006757707288865746 -0.019067386389381276
-0.015964450758077335 0.027364654649781845 -0.017279553188406228
-0.0628491280824409 5.455360241013562e-05 0.013403034734474363
-0.026501847904782393 0.008500045764763896 0.018932388044555992
-0.009411699379974717 -0.00854970882157047 0.010895501737029566
-0.022648497211059573 0.002346772135397346 -0.022823494890471138
-0.01421489639749538 0.012581681189841654 0.01578376109862954
-0.027980013536549372 -0.017922833831207956 0.007026565664372705
-0.01375659425499544 -0.014795999920895518 0.007049209996553616
0.002348235236488544 -0.00014241101540679257 0.012334782762416799
-0.016135101587050987 -0.016432766559026275 0.017558271037368282
-0.0071920222134535345 0.021993605735085055 0.016022544406609586
-0.024799995790883867 0.027003469193398456 0.018151907098424402
0.02530444073662693 -0.018163832711696432 0.009373729603292415
-0.009072103587563022 0.026104233744783312 0.017945688262772246
-0.0267929137982804 -0.008533326381119933 0.014098522070364891
-0.0466459626124311 -0.010516018609544152 0.013715643255396927
-0.009423585636653253 0.006501078440125276 -0.009503867701859
0.0021416553576840244 -0.01305261985671527 0.017233173214712075
-0.0017471764072233573 -0.008159097499649182 -0.01665160011713734
0.012860067910378442 0.051418033072901166 0.016789785671432692
-0.020843336588448145 0.027963542437888452 0.01843239119250086
0.00012719537829597224 -0.022791434272150492 -0.015838747131339207
0.02716614592190329 0.02740507950576928 -0.013422054166581413
0.010836332009689063 0.03475226401174519 0.014601171886524456
0.006378545087242422 0.00018136801889092138 0.008929063088858368
-0.00563488245033827 0.014480539299804024 0.002649699024320461
-0.03904666219026169 0.004985907415514261 0.0033059167989036454
-0.03797321654532303 0.015361819911593943 0.024699110381657466
-0.031244359478869402 -0.00995627580665402 0.020208066735814267
-0.023845549716856495 0.0023576846918314273 0.011968681729440715
-0.02147756706838609 0.05389960983668571 -0.03658409754667423
-0.026447498350479045 0.04568643092624098 -0.024123827376289934
-0.00714354450711735 -0.05983795624721974 -0.015657168010417957
-0.008628428366865407 -0.056226427364038156 -0.004158899276932335
-0.020143818342909986 -0.005127587063348161 0.014522798627674622
-0.04044745669909114 0.01756939820996716 0.021974802254030482
-0.023533702618448674 0.010090554384265206 0.012444481910001606
-0.008914072545763695 0.013787083644476304 0.019837845091692362
-0.04014113201870809 0.016048721377196495 0.011868925092897333
-0.04753985954684582 -0.005563849168166853 -0.012418511964629994
-0.0131666347125002 0.0068618238854237686 0.00536575383407388
-0.00607234572984124 0.028586922933409534 -0.00368933137301843
-0.0033730804363963788 -0.007649607479344486 -0.012868688651220766
-0.018705737534008473 -0.00492200516858147 -0.011816046684681232
-0.032624106721844195 0.0033652368572788982 0.02177451748337599
-0.01405032510000957 -0.003326646052801733 0.013498125687176205
-0.028665867168493418 -0.002886748082885157 0.00746032914793736
-0.0025676238243148458 0.027371307059439246 -0.011467948359235624
0.01858044941491687 0.013620267814991626 0.009876794935101513
-0.054189623005677014 0.064650580179315 -0.028414214796717987
0.0016974586926526878 0.004657069222851044 -0.006645768244788058
-0.013762453755470302 -0.012631105950550517 -0.01280663769046475
-0.0327024037506422 0.004463423089660184 -0.0010438499170607853
-0.032579238234253315 -0.009788654597845038 -0.005757361378058042
-0.038933768326687365 0.003212950962373779 -0.006099221970647765
-0.015547569750507717 -0.005144109810163961 -0.004360792360385358
-0.025268757584410724 0.012665927838472488 -0.02324497218973746
-0.00578308327424521 0.0010671243226163852 -0.015965948469239977
-0.032400165339964336 -0.008432086075853723 -0.023169202545114956
-0.03010537803068298 -0.027810769463363468 -0.006887733405659211
-0.03062400080847226 -0.010067478513083268 -0.0121646991436978
-0.042679689372760225 -0.007359662776376597 0.014255271657857956
-0.029754497087129694 -0.02271260460053225 -0.0349457589845483
-0.034597249668185046 0.0003563596514498415 -0.01599216765896596
-0.009922417283836539 -0.00278601373715698 -0.008877011841096493
-0.006803836541620447 -0.012858636776118416 -0.01106606375282547
-0.025895355802562053 0.0037051999963251462 -0.013157732026170483
-0.00733846036462984 -0.011687518949608762 -0.016412021649223854
-0.008941771635644486 0.004144838739031132 -0.00913783019175842
-0.02453717924094957 0.00813048520378115 -0.017164107150641324
0.02259217494411814 0.019577016897816574 -0.013846235465325209
-0.007517349069588653 0.005434654297016899 -0.010241841747892267
-0.007187456294725823 0.0177378033278311 -0.015854418713007627
-0.006533106656388528 3.285036159837234e-05 0.0007683921010002581
-0.008379935604530183 0.007945062302542709 0.017489223361391557
-0.02174334067233543 0.00817213643790878 -0.0007803869059752226
-0.012334547749925363 -0.02081376262854775 -0.02556436203454633
-0.010737089893239047 0.001113912523066332 -0.013276915233380966
-0.008104229040954045 0.004465060654858675 0.0032925990532342523
-0.022559536972536338 0.0026299559169802485 -0.018353289769525438
-0.027591327280753895 0.002766289350595509 0.005078787748472576
-0.015601563355370641 0.006630724923525725 0.010721122746714582
0.0036166013262920634 -0.009162254939080672 -0.01980549722146313
0.0033858830383375156 -0.021838980121317984 0.01721528602964611
-0.025631759636950475 -0.011523957730244184 0.007026104703110444
-0.018056981552394404 -0.0010817509834918678 -6.17678000869087e-05
-0.0026086355076203713 0.03108583622081932 4.601743590174419e-05
-0.03382206279391196 0.0033899766124471146 0.000482807990677299
-0.008420010887747655 -0.025493642640152466 0.010141239407320327
0.009222048550240265 0.0338959704810564 0.02528626290965483
-0.006213451690107156 0.04352284799858531 0.05429922981782794
-0.030695704016797387 0.013718327974135422 0.02218460300001237
-0.015456901463222171 -0.0006727045971515711 -0.0013524693334561115
-0.009529005808952338 -0.005329020599965741 -0.020402267909102392
-0.01115798901815479 -0.005014763940658141 0.0006193944859326398
-0.027566689186823434 0.009571653872149942 0.0039051789117262787
-0.016329644217296612 0.00875168330653891 0.008094031214177979
0.008849716972796559 -0.009944942045764304 0.008179053413369181
0.01051418185157641 -0.02403081177960998 -0.004002974646024612
-0.043759662785757686 -0.013700709672026225 0.00010450088858003174
-0.04305353485738941 -0.005341515763024549 0.008254209624170391
-0.03625594233819112 0.009040107116386661 0.009855707484521374
-0.0470552267649573 0.02263222603637222 0.012369856609591081
-0.017149465251025533 -0.00436997525694905 -0.02693267061555561
-0.04265474815294486 -0.023233360337743356 0.00802815268349575
-0.028345205382061464 -0.012121294570323984 -0.000838854944656278
0.017630399660534996 0.008605595468450534 -0.00105747134131391
0.009627998050916584 0.004033794937655946 0.0006735779806524646
-0.054543113451577106 -0.005684574545918759 0.0072936076191250036
0.007244260347936824 -0.019514750093702994 0.005956129329096567
-0.003410423943664485 -0.009753452578580766 0.02190370322820678
0.06169722502819919 -0.012636532198721767 0.04943933092324821
-0.007642054873341469 -0.12082482152571342 0.006291692544133827
0.033832236564419076 0.03462690032728099 0.0044238859144646505
0.01019045483256595 -0.008293606944828657 0.012831184795308162
-0.05046938331413548 -0.0017661644096342614 0.020899035990975184
0.0047995069155520285 -0.09229237643524005 0.043162949089835666
0.005234023959264855 -0.0014331785860622168 0.0048751106343728435
0.034313943032466654 0.0042210384291305 0.009021222722841483
-0.017186133635724035 0.008061646632724784 -0.007423802521464222
-0.004059492347332576 0.010336915726469408 -0.007454117563767129
-0.060192678780270424 0.054935563672943125 -0.027541749839599693
-0.06764465659262608 0.003545575167276984 0.008743449614192236
-0.005636844725852091 -0.013752823816333975 -0.01571463514275588
0.011123375433453311 0.04180656066486339 0.04133500739899847
-0.006465049917991286 -0.04014833942084461 -0.02733233220591315
0.008180418934319022 -0.013027826448062869 0.016434711643113244
0.006057561234562685 -0.018069012885188227 0.03027483880194024
-0.029879729980840364 -0.0037902740625249767 -0.002646659084484783
-0.002255715831916628 -0.012921329346967185 -0.004349247160605848
-0.01912550088287424 -0.061073559977386394 -0.03068814179563068
-0.010942956058372684 -0.0014218413291208869 -0.019803773466757005
-0.009329451197424373 -0.013347274005638416 -0.002972473017740491
-0.0071929920756464705 -0.0028539749158525882 -0.014753190179232864
-0.023973573315738825 0.01690452225984817 -0.007452647061378191
-0.020233439166172925 -0.022499850259158863 -0.00498482378115315
0.019577574884740104 0.016692809734336355 0.03274567120703365
-0.07558968525819483 0.017256340432319307 0.014793565352652764
0.0009894831940154864 -0.0308604382821582 -0.012293085299348971
0.029079236669520656 0.0020735698836581574 -0.004715225476679754
-0.054509744630833135 -0.006510057167602166 0.006252601340348813
0.010769207592327842 0.012382791620215602 0.005393134387344423
0.004716903544279058 -0.02062087693272991 -0.008686514863410093
0.013239154758975663 -0.007083810243867509 -0.0001414839368883667
-0.01105804844425863 0.011862667755110048 -0.028284504397800562
-0.026662875619617332 -0.00769835786333606 -0.00602301230294641
-0.027256085368503345 0.014426100628821976 0.0037450794078977617
-0.01486798799513155 0.016108941123671946 -0.008131662628209767
-0.0420685704307244 -0.02082993113160851 -0.0011445690701901202
4.958959280124823e-06 0.04092093473499723 0.0130727451285991
-0.019815278179999705 0.0037158648079154994 0.012252596412048325
0.0037980199932353903 -0.007002899015927959 -0.020721628965553948
-0.06136718402775693 0.02005955755503141 -0.0011989446922490079
-0.046656535629837216 -0.005559160803987171 0.0035918852645019056
-0.0771015144795795 0.02394852784291228 0.010170582813037288
-0.04228210919404695 0.00013582358983375004 0.012291320399898562
-0.0393764214142826 -0.00021711463834340846 0.008903891328437536
-0.009311486431210743 -0.007498287558262157 -0.0231856496339239
-0.047899873585975535 0.04087627700834 -0.0033915111015772855
0.003417695991230668 0.021216100727393154 0.00844179936262525
-0.0013706511602041788 0.032114031301414395 0.008350977149199534
-0.023432672255054438 -0.01719326401394668 -0.026467885648096188
-0.011126165823727698 0.044156172258462856 0.012582097558419554
0.033615388421143644 -0.015710396388886712 -0.00754384057254786
-0.002858263522111674 -0.02949752634764809 0.009683005949127589
0.0016478350908795815 -0.013662461637426598 0.009795204702160535
0.009448782239725693 -0.000177652127350625 7.726852594782513e-05
-0.03280141303087541 -0.004397006775429683 0.004257796752190646
-0.030551873488882827 0.032609875769108274 0.013071882376356687
0.033495977183924386 0.014936358330398714 0.011930350018329199
0.035293374297463306 -0.02760718306623097 -0.00216585213298521
0.01956816636732402 -0.0014781589295146753 -0.006215691731334713
0.00325009721474932 0.002275253212827193 0.013975757294873742
0.0013034573419200897 0.007021794420118678 0.009322002963006865
-0.00510163125285868 -0.005968397854882455 -0.0018617454906584595
0.02328306340677768 0.008011797117074993 -0.012004092882957274
-0.03566075622335351 -0.013562530228935363 -0.005752441789066223
-0.0047096903283957115 -0.03894370107695819 -0.04305046228125102
-0.018107872451292625 -0.03152402852653176 -0.0046461813974673525