# vtk DataFile Version 2.0
Really cool data
ASCII
DATASET UNSTRUCTURED_GRID
POINTS 584 double
-1.0 0.0 0.0
-0.9600374798207896 -0.027590413451835553 0.04
-0.9589620457797374 -0.028177574718636023 0.0
-0.9553815213922792 0.019675326217199102 0.04
0.6719637381218919 0.02110482676547816 0.0
0.6414775595248179 0.020020515529780993 0.04
0.6571281419012174 0.06 0.0
0.6240641012293764 0.022292119262118645 0.0
0.687851041884645 0.021313940245698455 0.04
0.7030120427199962 0.06 0.04
0.657128141901218 0.06 0.04
0.7030120427199952 0.06 0.0
0.6885310613992013 -0.0196061899732657 0.0
0.6720046167250797 -0.020579604775701428 0.04
0.6407079554435648 -0.019738458112036637 0.0
0.7171469290115033 0.021165332718839136 0.0
-0.7921016077200962 -0.06 0.04
-0.7604373514312079 -0.019298436119384588 0.0
-0.7479973317145423 -0.06 0.04
-0.7479973317145417 -0.06 0.0
0.7030120427199962 -0.06 0.0
0.7030120427199952 -0.06 0.04
0.6571281419012174 -0.06 0.04
0.7479973317145417 -0.06 0.04
0.7325903506195701 -0.020274227246539274 0.0
0.7176321617908783 -0.019839353713154383 0.04
0.7604373514312079 -0.019298436119384588 0.04
-0.8488906624897727 0.019856366527450334 0.04000000000000001
-0.8052789150181434 -0.019306901564895652 0.0
-0.805541091654972 0.020469431563422978 0.04000000000000001
-0.8203038938742353 -0.020636147377884773 0.04
0.897529295217204 0.022569895749215793 0.0
0.8488906624897727 0.019856366527450334 0.0
0.8569454102823642 0.029774901726562965 0.04
0.8777357995360431 0.06 0.0
0.9553815213922792 0.019675326217199102 0.0
0.95349853104827 0.02147987272312249 0.04
0.9103536180674616 -0.021283841161765512 0.0
-0.5450807564691462 -0.01715484187473429 0.04000000000000001
-0.5372746904547943 0.02439300391790418 0.04
-0.49049502097572617 0.000359712426279548 0.04000000000000001
-0.5409244119327052 -0.005150142234760652 0.0
-0.48901428549955095 -0.02776609156780287 0.019771763033692314
-0.4642419910175897 -0.06 0.04
-0.43891524330526177 8.673617379884035e-17 0.04000000000000001
0.7479973317145423 -0.06 0.0
0.9600486361512215 0.06 0.04
1.0 0.06 0.04
1.0 0.06 0.0
0.9192992165657531 0.06 0.0
0.7479973317145423 0.06 0.04
0.7309057796957548 0.02177174945441851 0.039999999999999994
0.7479973317145417 0.06 0.0
0.7613659684934695 0.020945326906433456 0.0
0.7736855084518748 0.020914979208800512 0.04
-0.8570647961856006 -0.015388027432140593 0.0
-0.8569454102823642 0.029774901726562965 0.0
-0.8649535140731797 -0.02016838668923704 0.039999999999999994
-0.1726925416005594 -1.214306433183765e-16 0.039999999999999994
-0.22806385632140147 1.0755285551056204e-16 0.039999999999999994
-0.2006519843784229 0.06 0.0
-0.22806385632140147 -1.1796119636642288e-16 0.0
0.438611990705585 -5.252150912499892e-05 0.04
0.41358849559293387 -0.06 0.04
0.4135884955929341 -0.06 0.0
0.4642419910175897 -0.06 0.0
0.4782715374234063 0.0302584611690398 0.019894876072988572
0.513903464641242 0.06 0.0
0.49049502097572617 0.000359712426279548 0.0
0.46424199101758934 0.06 0.0
0.46424199101758934 -0.06 0.04
-0.8164681441220105 0.022269284396602723 0.0
0.48912437490067595 -0.00041996788971368666 0.04
0.4642419910175897 0.06 0.04
-0.8353421249080566 0.06 0.04
0.8649535140731797 -0.02016838668923704 0.0
0.8973163514988121 0.02144006532192878 0.04
0.5625923446839085 0.06 0.04
0.6103276788742331 0.06 0.0
0.5943416245309461 0.018901239582525348 0.04
0.5790918012159274 0.021628695864523574 0.0
-0.593631917725493 -0.01946781888421301 0.04
-0.6103276788742336 -0.06 0.04
-0.6407079554435648 -0.019738458112036637 0.039999999999999994
-0.6264545933043166 -0.021459100211208025 0.0
-0.6103276788742331 -0.06 0.0
-0.6103276788742336 0.06 0.0
-0.6240641012293764 0.022292119262118645 0.04
-0.6414775595248179 0.020020515529780993 0.0
-0.5943416245309461 0.018901239582525348 0.0
-0.5790918012159274 0.021628695864523574 0.04000000000000001
-0.5625923446839077 0.06 0.04
-0.6103276788742331 0.06 0.04
-0.5625923446839085 0.06 0.0
-0.7325903506195701 -0.020274227246539274 0.039999999999999994
-0.7176321617908783 -0.019839353713154383 0.0
-0.7309057796957548 0.02177174945441851 0.0
-0.7736855084518748 0.020914979208800512 0.0
-0.7613659684934695 0.020945326906433456 0.04
-0.6571281419012174 0.06 0.04
-0.6719637381218919 0.02110482676547816 0.039999999999999994
-0.7030120427199952 0.06 0.04
-0.687851041884645 0.021313940245698455 0.0
-0.029521960903255984 -0.06 0.04
-0.05860957814939871 -6.938893903907228e-17 0.039999999999999994
-0.05860957814939863 5.898059818321144e-17 0.0
-0.08769719539554167 -0.06 0.0
-0.08769719539554144 -0.06 0.04
-0.2823507532564078 -5.204170427930421e-17 0.04
-0.25547572826437986 0.06 0.04
-0.25547572826438003 0.06 0.0
0.38751191920162714 6.938893903907228e-18 0.0
0.3352618020299945 -3.469446951953614e-18 0.0
0.36192316205531716 0.06 0.04
0.3619231620553172 0.06 0.0
-0.36192316205531716 0.06 0.0
-0.335244821032008 -1.1796296425746478e-06 0.0
-0.3352618020299945 -3.469446951953614e-18 0.039999999999999994
-0.38745316199969926 -7.894682722445895e-06 0.0
-0.3619231620553172 0.06 0.04
-0.3092257782484355 0.06 0.04
0.28235075325640757 5.551115123125783e-17 0.039999999999999994
0.30922577824843556 -0.06 0.0
0.335244821032008 -1.1796296425746478e-06 0.04
0.3092257782484355 -0.06 0.04
0.36192316205531716 -0.06 0.0
0.38745316199969926 -7.894682722445895e-06 0.04
0.3092257782484355 0.06 0.0
-0.38751191920162714 6.938893903907228e-18 0.04
-0.28235075325640757 5.551115123125783e-17 0.0
-0.30922577824843556 0.06 0.0
0.6103276788742336 -0.06 0.0
0.593631917725493 -0.01946781888421301 0.0
0.6264545933043166 -0.021459100211208025 0.04
0.4889627886584896 -0.027603176797077415 0.020155725176282127
0.583287522480325 -0.023728770665855194 0.039999999999999994
0.5450807564691462 -0.01715484187473429 0.0
0.5409244119327052 -0.005150142234760652 0.04
-0.48912437490067595 -0.00041996788971368666 0.0
0.3619231620553172 -0.06 0.04
-0.657128141901218 0.06 0.0
0.9600374798207896 -0.027590413451835553 0.0
1.0 0.0 0.04
0.9589620457797374 -0.028177574718636023 0.04
0.5625923446839077 -0.06 0.04
0.5625923446839085 -0.06 0.0
0.7766984080639845 -0.02052537972713625 0.0
-0.438611990705585 -5.252150912499892e-05 0.0
-0.583287522480325 -0.023728770665855194 0.0
-0.9600486361512215 0.06 0.0
-0.95349853104827 0.02147987272312249 0.0
-0.9192992165657539 0.06 0.0
-0.9192992165657531 0.06 0.04
-1.0 0.06 0.0
-0.14473309882269625 -0.06 0.04
-0.14473309882269605 -0.06 0.0
-0.11621514710911887 -1.214306433183765e-16 0.0
-0.17269254160055947 1.1796119636642288e-16 0.0
-0.14473309882269625 0.06 0.0
-0.11621514710911884 1.214306433183765e-16 0.039999999999999994
-0.8353421249080566 -0.06 0.0
-0.8353421249080575 -0.06 0.04
-0.8973163514988121 0.02144006532192878 0.0
-0.897529295217204 0.022569895749215793 0.04
0.11621514710911887 -1.214306433183765e-16 0.039999999999999994
0.05860957814939871 -6.938893903907228e-17 0.0
0.05860957814939863 5.898059818321144e-17 0.039999999999999994
0.08769719539554144 0.06 0.04
0.6103276788742336 0.06 0.04
0.5139034646412424 -0.06 0.0
0.9096368506350345 -0.020963842829632554 0.04
0.805541091654972 0.020469431563422978 0.0
0.8052789150181434 -0.019306901564895652 0.04
0.8203038938742353 -0.020636147377884773 0.0
0.08769719539554144 -0.06 0.0
0.08769719539554167 -0.06 0.04
0.9192992165657531 -0.06 0.04
0.8164681441220105 0.022269284396602723 0.039999999999999994
-0.9103536180674616 -0.021283841161765512 0.04000000000000001
-0.8777357995360431 -0.06 0.0
-0.9096368506350345 -0.020963842829632554 0.0
0.8570647961856006 -0.015388027432140593 0.04
0.7921016077200956 -0.06 0.04
0.8353421249080566 -0.06 0.04
0.7921016077200962 -0.06 0.0
0.4135884955929341 0.06 0.04
0.43891524330526177 8.673617379884035e-17 0.0
-0.7921016077200956 -0.06 0.0
-0.08769719539554144 0.06 0.0
0.14473309882269605 0.06 0.0
0.1726925416005594 -1.214306433183765e-16 0.0
0.11621514710911884 1.214306433183765e-16 0.0
-0.029521960903255984 0.06 0.0
0.0 0.0 0.0
0.17269254160055947 1.1796119636642288e-16 0.04
0.14473309882269625 0.06 0.04
0.0 0.0 0.04
0.2006519843784229 0.06 0.04
0.22806385632140147 -1.1796119636642288e-16 0.04
0.22806385632140147 1.0755285551056204e-16 0.0
-0.6720046167250797 -0.020579604775701428 0.0
-0.7030120427199962 -0.06 0.04
-0.7030120427199952 -0.06 0.0
0.25547572826438003 0.06 0.04
0.30922577824843556 0.06 0.04
0.25547572826437986 0.06 0.0
-0.02952196090325599 0.06 0.04
0.2006519843784232 -0.06 0.04
0.14473309882269605 -0.06 0.04
0.2006519843784229 -0.06 0.0
0.14473309882269625 -0.06 0.0
0.2823507532564078 -5.204170427930421e-17 0.0
-0.36192316205531716 -0.06 0.04
-0.41358849559293387 -0.06 0.0
0.5372746904547943 0.02439300391790418 0.0
0.5139034646412424 0.06 0.04
-0.5139034646412424 -0.06 0.04
0.41358849559293387 0.06 0.0
-0.7171469290115033 0.021165332718839136 0.04
-0.7479973317145417 0.06 0.04
-0.7030120427199962 0.06 0.0
0.08769719539554167 0.06 0.0
0.029521960903255984 -0.06 0.0
-0.02952196090325599 -0.06 0.0
0.02952196090325599 -0.06 0.04
0.02952196090325599 0.06 0.0
0.029521960903255984 0.06 0.04
-0.47805793986482265 0.03008719549728311 0.01940109733029794
-0.4642419910175897 0.06 0.0
0.6103276788742331 -0.06 0.04
1.0 -0.06 0.04
0.9600486361512205 -0.06 0.04
0.9600486361512215 -0.06 0.0
-0.3092257782484355 -0.06 0.0
0.877735799536044 -0.06 0.0
0.8777357995360431 -0.06 0.04
-0.41358849559293387 0.06 0.04
-0.4135884955929341 0.06 0.0
1.0 -0.06 0.0
1.0 0.0 0.0
-0.14473309882269605 0.06 0.04
-1.0 -0.06 0.0
-0.9600486361512215 -0.06 0.04
-1.0 -0.06 0.04
-0.7921016077200962 0.06 0.0
-0.9192992165657531 -0.06 0.0
-0.9600486361512205 -0.06 0.0
-0.7921016077200956 0.06 0.04
-0.7766984080639845 -0.02052537972713625 0.04
-0.5625923446839085 -0.06 0.04
-0.5625923446839077 -0.06 0.0
-0.877735799536044 -0.06 0.04
0.7921016077200962 0.06 0.04
-0.3619231620553172 -0.06 0.0
-0.7479973317145423 0.06 0.0
-0.8777357995360431 0.06 0.04
-0.4135884955929341 -0.06 0.04
-0.46424199101758934 -0.06 0.0
0.513903464641242 -0.06 0.04
-1.0 0.0 0.04
-0.877735799536044 0.06 0.0
-0.30922577824843556 -0.06 0.04
[...]
POINT_DATA 584
VECTORS displacement double
0.018272083220753105 -0.017247871857398664 0.02792730861120058
0.014433450906120755 -0.012530723895126538 0.016867555069258033
0.010117658780732475 -0.013395656768675872 0.018366502836120065
0.017239726853300344 0.0015407469099694292 0.013863020334602707
0.005136841249122879 0.0024997112094554954 -0.01697414282769545
0.012901401386938653 0.033229527220935945 -0.005675547603244564
0.02284982493168276 0.013688606752993165 -0.01908107406807099
0.008574093798267115 0.005541292023579171 0.005994115058972744
0.01084337587430292 -0.009937271528461808 -0.02239596606781217
0.019409760913375255 -0.005720115999983677 -0.026269483442503495
0.02642826435454583 0.01254428392120262 -0.0245635229430096
0.0191342135122671 -0.005514400830602757 -0.020073708047018596
-0.010639207921722535 -0.0010540475049200713 -0.02412058807174082
-0.009505756352192184 -0.005353729500330052 -0.020411581393412002
-0.018039511095001595 0.009044299256153361 -0.0014168404758855577
0.010583500045728842 -0.004486320241852277 -0.016560297143674112
-0.013191296302015898 0.0002742771825854456 -0.012925272085235055
0.003409833401614603 -0.004771707815755024 -0.000306118481973786
-0.019165519159908384 -0.0016789817340588503 0.014558195635123639
-0.01363085958947211 -0.00851989489792096 0.012859011196975871
0.005988985406904761 0.004076012697803393 -0.03376729854623341
0.009278037264896587 -0.0024257990883232916 -0.04027225969054338
-0.010665413764207269 0.027481222222702658 -0.01564982829611448
0.012721544943458877 -0.001208398671228971 -0.016590117561087383
-0.004983048538127225 -0.002170741473731337 -0.013731819154086207
-0.00530670670946407 -0.005744237431303309 -0.021999219906782535
-0.006420148955539099 -0.006326602306098918 0.004959700352153846
0.011581713894715151 -0.000598377728479103 -0.028169767644306926
0.004867227975710848 -0.002439769673997491 -0.02646422680585236
0.007050112266456054 -0.0020340972700294314 -0.022612133897779673
0.003402490110680778 -0.004338249018058388 -0.02879318720445209
-0.0039982776174977966 0.0018614990740516604 0.014753765948683568
-0.006443110470479706 -0.033504240102357315 0.042374993509055346
-0.004044444070411919 -0.04835306839541799 0.03677218826712469
-0.056806847335198966 -0.02218894017768907 0.02969448294844683
-0.00528236438563776 -0.01845110382273757 -0.04487583154994492
0.00396921683547333 -0.025071552592555203 -0.030625364010785052
-0.006186484069858102 0.009408531326608132 0.0035076014305973884
-0.0018308603703247224 -0.002704331068734931 -0.025009515258080452
-0.014342578372012037 0.0044047942435226015 -0.027168354403731092
-0.007578835381908903 0.0033791903912377065 -0.023363364622815526
-0.006141195313478762 -0.003581923442786292 -0.02082567762025047
-0.007689537291628739 -0.009526100456143029 -0.012556794685144729
-0.005273422904477778 -0.010030486690552058 0.00523671258691799
-0.010303070734355203 -0.006000007828360297 -0.0010055852989257349
0.01415373611828035 0.0015142912212010938 -0.010252639195010155
-0.03867196872312369 -0.0339971881046955 -0.03174005442598813
-0.03456973086292181 0.014908308909458731 -0.05624050826005407
-0.048875607610893816 0.02294464004518946 -0.06482044536524759
-0.04689783995587054 -0.006789540192418963 -0.007086469135738293
0.01991248987102047 0.012066577611963765 -0.012330542232099478
0.009855772884826152 -0.0019075261617990027 -0.013733508527105242
0.02315423033918838 -0.0016787979495569388 -0.0038936666473738902
0.011617164173043254 -0.015023418231485551 0.013123736481046604
0.010037101071726902 -0.02572933333194496 0.01264303850858604
0.003529978206135527 0.01009086748986433 -0.031206544951108358
0.010542552706578036 0.011016338663672477 -0.02568158029951133
0.006089604658592557 0.007233446158639792 -0.02947797234541863
0.006124473469843431 0.0031000366135125745 -0.019177832449506212
0.006686190457579081 9.698908561716967e-05 -0.028647667729849013
-0.015945195880307236 -0.0023271982341683296 -0.03238680135241189
0.007547521378996223 -0.007197619028168848 -0.02511289801150074
0.0012962622427968157 0.0024578424856643516 -0.029226540646363132
-0.008242960917699006 0.0149331866883712 -0.03571896174591185
-0.012966717820743844 0.013807696308849097 -0.042936793792487875
-0.007778482029287201 0.018875034722706865 -0.02690517831480795
-0.007829055602916187 -0.01376712400637948 -0.018888981582714535
-0.0008467664940559479 -0.0354738607812607 0.009682302853843236
0.000521127153201375 -0.0010635840422813176 -0.008558949291922637
-0.003968358233439238 -0.028455495353313633 -0.03818227994701547
-0.009059758368192809 0.018003667678169775 -0.01909334851376789
0.009255538207793403 -0.0022534676891931018 -0.02844835526576035
0.0012119675723934519 -0.004012299739498723 0.004568025080194397
-0.002028198280486411 0.00016471638639809099 -0.0347066480782175
0.018205069424458986 0.0010445908417280878 -0.023882350449025383
0.002251874598560245 -0.023915407520465008 0.04055144284475298
0.00286155625088912 0.010511151232287602 0.018449461891568823
-0.009198884194835787 0.025373879630052578 0.04140034239579102
-0.005588507058595329 -0.025490752275743826 0.022954353285132338
-0.0013365016272921392 -0.0045524714515308255 0.02508107065922727
0.006038202479879616 0.008515914032386137 0.03156385492186961
-0.0028495450247299054 0.0037069321735792153 -0.007499628033367641
-0.004457674622186714 -0.0022525117275406146 0.002670486040783876
-0.0015717913465406012 -0.01614872234005261 0.016556435284099707
-0.0036454621501841394 -0.008525151704609508 0.01532150923408101
-0.004070478552535518 -0.006005958422272427 0.009873229011128457
-0.017133643186885674 0.023737358718842232 0.017323916490682267
-0.0047259165474878365 0.0038629076464909745 0.009395218679388863
-0.0028212664988483825 0.000584317147235905 0.023772681775896302
-0.008655341281102501 0.01565545385017009 0.0014156330310429606
-0.0068430486085940346 0.01014844626909112 -0.013596255386272177
-0.01801707285177261 0.021426671718551168 -0.011329987905138917
-0.013788077215598101 0.01294847367048029 0.013566151718187034
-0.022467562678739162 0.028920088609395926 -0.007569881261670314
-0.0006527963528178792 -0.009165228354887485 0.015886180356508465
0.0025446871226096706 -0.013790345092390098 0.02009439500562629
0.006558302953813222 -0.010203876935111522 0.010721555741596488
0.011924632182902965 -0.003349203954274555 -0.01395637690127807
0.007753108307147709 -1.5652230434782145e-05 -0.005131236487398169
-0.010317560253219128 0.0038794035661472532 0.023772837619811853
-0.0017871335479056239 0.0031946131030826095 0.023374294633408024
-0.007429848054227485 0.008876151518668149 0.02078539646263724
0.0010726502265849267 -0.0034734365480279935 0.024662874918959646
-0.007397950192196056 -0.01700784148734541 0.010762334294699734
0.010658628538096059 0.018768663240900246 0.010179812480600852
0.00285840739132556 0.013899432098315368 0.020623852057172362
0.0026994122431178197 -0.032901064534884436 0.041208422114925675
0.009624166375562628 -0.027880291274152973 0.03172278498983899
0.00321934291559475 0.005217132938175311 -0.010907857154756643
-0.015847875618007084 -0.004156138838447454 -0.016519874395753854
-0.020113139705735566 -0.0008390227372627083 -0.019813614731648714
-0.01443808808504847 -0.01365579619513047 -0.045009620751718236
-0.012068855636648715 0.008372827784479646 -0.01073500066656074
-0.0030873703038306784 0.007646663926547053 -0.03103819959007299
-0.010753896075202883 0.002711366005375004 -0.03579559509753396
-0.028106584519184047 0.00720717441941739 0.027109989697389876
-0.003524832039182062 0.016865825851263477 0.011041574470605798
-0.0010979859494141873 0.008573192087446195 0.012101637518611956
-0.004701656573678304 -0.000354607587431055 0.020161377488656138
-0.027062004020170605 0.0004984392780229601 0.028291579970111096
-0.02029746652359403 0.0024991177186878795 0.014223140773711168
-0.0005496355789877906 0.006163319803060953 0.03657391635771187
-0.03229434683439926 0.0072946002370019815 0.01116281955442862
-0.005390132756704831 0.005774979386704852 -0.004924883987473375
-0.02080500596986348 0.0016597171806285807 0.011469535977691592
-0.030634892073427022 0.02911596125932892 -0.03604961354956982
-0.002197009497538051 -0.00993581837270072 -0.03103316392528312
-0.009216197172675576 -0.00451413309148271 0.003189597002293488
-0.003927955425336544 -0.0014895749850553273 0.01754802392257199
0.00132445222293528 0.008102247627025976 -0.009590306647487397
-0.02561698400561033 0.010828095399045523 0.009592522853864607
-0.015387479799771986 -0.011191789168626946 0.006535707874807548
-0.0060951176779224115 -0.005145659755503493 0.021425832008633378
-0.011811163332305431 -0.005830152759219235 0.005660618704301061
0.0025495310491518365 0.0059719287755309975 -0.0036713240822827727
-0.006079048654867661 -0.013264276781990924 0.026500941673828885
-0.0032436838492003023 0.03281429593700519 0.025129053642699097
0.0037479274743239233 0.026175093577939117 0.03759231932663083
-0.007529573154429051 -0.005752330666768787 -0.014714595339476276
-0.022002806526760954 0.03035715767588536 -0.03056566592383453
-0.007358002792693847 0.0021311873435402944 0.024418086087413304
-0.006116068057032589 0.014244611623013973 -0.053982064251639005
0.015848758698563913 0.015484393893474375 -0.05919048444581044
0.008514564665398034 0.008993589002808722 -0.03581427461352799
-0.020303967442598003 0.01763182772456053 0.023878044272906546
-0.01811250865019759 0.027792739780390346 0.015056271905099842
0.0028388143658578187 0.009209259771464697 0.01512512763891415
-0.008221676709557956 -0.014918523472512069 0.004873896058726912
-0.00551999337139428 0.003453560977479949 -0.005150225742597613
0.01946171408834808 0.011579510143093571 0.028207834852125992
0.014364164149437147 0.0069214908478091655 0.02045364269025368
0.014261617450918957 0.02679996483367777 0.009472640694999904
0.0210133678423045 0.01697142006025616 0.009073911228169505
0.021581047855376314 -0.0020588218578875546 0.030419723585993805
0.010740312905848032 -0.01258204592245478 0.01623936381631092
0.014416622048025582 -0.024846407426649956 0.030892295699574284
0.015428531847953893 -0.005462941025838829 0.023454914553199854
0.012099364223182649 -0.011148187028870651 -0.009080749203491318
-0.00808370380698439 -0.004128204220722219 -0.007335778619309465
0.015519986697132289 0.011715168997435067 0.004358071178524637
-0.012884095292244635 0.0002388855096039745 -0.032526123731403914
-0.010712420513764677 -0.003527830586967362 -0.03240618992649896
0.006131602384091504 0.018681177692988254 -0.008913365055640983
0.011297865189844556 0.014306060742409012 -0.012859459909246963
-0.005141149127344278 0.0010501363919921192 -0.02408596153320572
-0.010602868405576287 0.009402371760962007 -0.03924967126756183
-0.0034356111679357372 0.010869383529932499 -0.03643668706504706
0.0037465448229334645 0.003932109829102508 -0.0364525555869825
-0.0018384036198006 -0.05126163011775447 0.02026965706075616
-0.001774796823282835 0.02225886039036176 0.0036310688054850345
0.003521959537963471 0.018003895087075072 0.014441659110981121
0.007409785172744705 0.003593528215205109 0.03844796112811146
0.012592815439978797 0.010994116655244947 0.04199378465152184
0.011608272642795852 -0.005245202455787092 0.044125958643388384
-0.03606009225101042 -0.0023361661809771623 -0.022854392274751802
-0.02829963593812859 0.006029317221699201 -0.02641628035309436
0.015434404900326392 0.008740357411728805 0.004261343637428043
0.007992997249625452 0.0018680480019479717 0.038890602805962564
0.009008688550870943 -0.003766074438629604 -0.009876652547527422
-0.013219371418016056 0.012729733121277401 -0.029759763007485635
0.0015638896125852377 0.005648739200389846 -0.00803020752175638
0.005414568160893509 -0.023217192553957433 0.051811713176838255
0.02079871699914943 0.04233299768922969 0.01588932117678686
0.020169432149056823 -0.01903845182010851 0.051977195805370205
0.021145116855778676 0.024357668209683256 0.030747006457420754
-0.0097118325919551 -0.03659286428470587 -0.04617251839817105
-0.005584462675748337 -0.005980666507091764 -0.04446829064977538
-0.0108101154468226 -0.0010342469956221283 -0.017962268145610777
-0.0020606760091884937 0.02507638859390002 0.02137653152088038
-0.002544235417159152 -0.020388282042106444 -0.03199487803752701
-0.01239556747575823 -0.015778195803913812 0.012920026195057537
-0.008205182915032892 -0.012776609872795523 -0.023191516073601426
-0.008300320572711515 0.04533399045989953 0.016068959523909028
-0.012586154151838919 0.013080747055893288 -0.010398071075369423
-0.013933231712463722 0.0034528908749789523 0.017412243515921497
-0.003413220144240054 -0.009073969372415993 -0.020554468090353464
-0.0022136575990447513 0.009573029324742438 -0.016519487855232586
-0.004809702749691848 0.0012534124150882769 0.008112160569550206
-0.0021362536565640608 -0.015174728214421708 0.04651658154017524
-0.006227960471616965 -0.022601024110737968 0.04673362035106404
0.00118051943048111 -0.008915828783085255 0.028973066061821335
-0.01516688000268608 -4.5023109163972464e-05 0.031529387197538415
-0.009228114400616263 -0.008743752916806409 0.03140884871898063
-0.008552224891079754 -0.008495090937276671 0.026952211613861507
0.0014022999125701224 -0.0018326937018730688 0.01182957050415095
-0.00953220182468983 -0.021676434243514345 0.030170735240984632
0.002627234241168758 0.025768538904879776 0.02665104166510955
-0.02320519213608252 0.04533769748125287 0.04211292315936083
-0.03238793514659326 -0.02242719732073847 0.011169214538560733
-0.040583801113978746 0.021958239648369467 0.053776254942226445
-0.04077982965866551 -0.03137840440133092 0.01636212902455344
-0.01002343552689232 0.0006539622260829065 0.029710003084723848
0.0020321688746577624 0.002546238977885405 0.013162168068824559
-0.0014203270327064117 -0.006591506166339061 0.01970334640650139
0.018410705823639684 0.003949556475209095 0.017014667301635915
-0.006720869558239013 -0.05604381212849626 0.025896106300142517
-0.0017485646898337671 -0.017172172068202374 -0.014075054444341657
-0.011507160588691508 -0.04256173514382886 -0.058796589766648984
0.0013789345935085575 -0.009533297642869613 0.014988084346419937
0.009296435678988274 0.008917491151314806 -0.0006661096082699844
-0.0002551221802285476 0.0009555268722050445 0.02033377218085116
-0.004181970730518563 7.700276947964074e-05 -0.0464810300620006
-0.033380185814953695 -0.009829580149894011 -0.018535094813765262
-0.02049084291674249 -0.019811307654677677 0.017736922889731863
-0.017771183443799222 -0.008160801213952426 -0.026020365711765643
-0.013863368817578443 0.0035652801337997925 -0.01816055324709487
-0.0011759894552533822 -0.0032860550026810975 -0.017101941235062722
-0.017674815745744532 0.0044309600410806895 -0.019836469679811487
-0.025710234936624908 0.004939541137894653 -0.013539651051526613
-0.009100644208860836 -0.01729120080522698 0.011580856330138957
-0.003004874369870784 0.033968863091943864 -0.06693824047945351
0.006372979676412269 0.007408137109347687 -0.04318794032821691
-0.005736175078164333 0.016105825308759505 -0.057380731452915695
0.0004434811715307549 0.016262883429433224 -0.0029421608090960745
0.010164151814031632 -0.012271805598251287 0.043673094021591106
0.023418001150770442 0.003784062968834229 0.04467802725296634
-0.029089153630275744 -0.003688085238450395 0.007010533885046706
-0.029718664652705763 -0.007345852549246056 0.011756807875748676
-0.013792538858472848 0.04159446922709835 -0.0791279234397427
0.005341722807619369 0.023580688226666615 -0.07031142109959607
-0.0048218354871080215 -0.009331315399870754 -0.0042070207608946985
-0.002026090571967424 -0.013239336858453667 0.03921502308625719
-0.002545045342325356 -0.0201776018831288 0.020694843277407438
-0.001541925540213609 0.0002449511507994442 0.034674309243439005
0.017679088317677047 -0.007989484048271966 -0.023579704450362084
-0.011078460900131556 -0.008653852595773111 -0.005319569273753973
-0.006904604799082576 -0.020842126505453702 0.02102341502852275
0.015028174342368542 -0.007267405551993805 -0.019787946025014505
-0.0007031875566092296 0.008520463234780397 -0.009345266506172444
-0.00319968089122972 -0.0013220132963883825 -0.017518565622846
-0.0031970527986024933 -0.005981481253755552 -0.008276910144537073
-0.008780431617678965 0.014480045467706947 -0.024748464187601574
0.007623391591693932 0.017768076184830405 0.022190964214853264
0.0008116278927838583 0.0066894375655292375 0.013818548061267663
0.014959229130644014 0.0015717780016386606 -0.0026443126695251807
0.023266552046417154 0.002558624282692822 -0.010482499441160207
8.476114229120434e-05 -0.0007030263067789454 0.02249476615864048
-0.0005736973233217278 -0.023616073868287343 0.010724177583049855
-0.0060731576348380615 0.008610882195627374 0.014059922566173862
0.017809249747173735 -0.013970355254622275 0.02072766076264745
0.017282552734340494 0.015513962463417097 -0.01192207430749824
0.0025483028101683245 0.010097938662812944 -0.004817639423048348
0.005014979039925882 0.0018418154684402518 -0.017173120835211438
0.005483678314581192 0.007624286069719261 0.03233231939510829
-0.02286057465734487 -0.004545739779008381 0.049040540274312684
0.004345426726026285 0.0017021582152449376 -0.01886224753438348
0.021277579665838153 0.0036430429869365837 0.025709221800062174
-0.00941254845122826 -0.004028987699928324 -0.0009478569531549012
-0.026811157135792813 0.00934157121260678 -0.022761068885102643
0.00018500099491784846 -0.001262862126512716 0.027162963827826816
-0.05107636306431314 -0.022050170969880486 -0.03817400236555303
0.01972540756754864 0.001234094813884511 0.015984175104900467
-0.02457880136379027 0.00613094003914805 -0.024250952461296812
-0.026748676866670634 0.008422884445509352 -0.01585186053491097
-0.01199942200245664 -0.014168891365364547 0.030586014705240507
-0.05151401455831337 -0.0042017499268598634 0.021280206076467592
-0.04078697864830687 -0.0004690932117248076 -0.008152342493927125
-0.008047992036870304 0.00044432309622619714 0.054257589889307595
0.012446397212581227 -0.022491338459181026 0.049323993069816996
8.671657128937579e-06 -0.02176353610438876 -0.010208846071783581
-0.012560469488172146 -0.000944795217845445 -0.02956867295576522
0.018219979952414107 0.006074016051828047 -0.02372248314101764
-0.008254833123745094 0.01641113889814308 0.055213645055994166
0.001871645067496533 0.044624074795116306 0.03045996835501749
0.008475469800698382 0.01211284346306634 0.03237690706989987
0.0003003953614300045 0.00978503807077575 -0.002013949593420468
0.0008683514331979206 0.023085175436106872 0.03179980684637022
-0.015918171953832477 -0.006478655197402824 0.02744619127592368
-0.010062400124573616 0.02470154865054071 -0.01714410940086932
0.008362736197180207 -0.01380382122478475 -0.010968768318638387
0.012089235195564096 -0.02625957264550365 4.0383030995008795e-05
-0.0006302066382551662 -0.02224199213561487 0.0038427603586148064
-0.005180980631777137 0.0021729082335433143 0.0014869850687367011
0.01334500570997086 -0.0036475942146894343 0.01705063089150454
0.001129097283258755 -0.008345048594090592 0.024707464377564246
0.0064678122159532395 -0.00564549857533348 -0.02194799629708048
0.022236265977864267 0.006258724670028761 -0.01848747854917626
0.0038255318439709795 -0.0005164941043010088 -0.016223950781356262
0.010017731314262259 -0.012055313669836674 -0.021425017401257466
0.002490302472773873 0.004290229991082953 -0.016020278469474045
0.0012899103861304883 0.0062272120778470805 -0.014299334200795445
0.0073551159353474815 0.0026553304002016197 -0.021942893369502663
-0.008007709330518196 -0.0014747475519501243 -0.018534029607241074
-0.008026560834474925 0.004094825334565716 -0.016396254525477907
-0.011623655986515071 -0.00048440228612388185 0.002068907765666526
0.014290028757438466 -0.001926892448607213 0.022805482088316103
0.004746887681707364 0.0010531297051727905 0.009457993747953761
0.01827908783350326 -0.00427944837891754 0.014484688820723155
-0.00195617925268619 0.006024203886234948 -0.020098493355765346
0.005137158241260769 0.013844107454922955 -0.02488956094005711