# vtk DataFile Version 2.0
Really cool data
ASCII
DATASET UNSTRUCTURED_GRID
POINTS 584 double
-1.0 0.0 0.0
-0.9600374798207896 -0.027590413451835553 0.04
-0.9589620457797374 -0.028177574718636023 0.0
-0.9553815213922792 0.019675326217199102 0.04
0.6719637381218919 0.02110482676547816 0.0
0.6414775595248179 0.020020515529780993 0.04
0.6571281419012174 0.06 0.0
0.6240641012293764 0.022292119262118645 0.0
0.687851041884645 0.021313940245698455 0.04
0.7030120427199962 0.06 0.04
0.657128141901218 0.06 0.04
0.7030120427199952 0.06 0.0
0.6885310613992013 -0.0196061899732657 0.0
0.6720046167250797 -0.020579604775701428 0.04
0.6407079554435648 -0.019738458112036637 0.0
0.7171469290115033 0.021165332718839136 0.0
-0.7921016077200962 -0.06 0.04
-0.7604373514312079 -0.019298436119384588 0.0
-0.7479973317145423 -0.06 0.04
-0.7479973317145417 -0.06 0.0
0.7030120427199962 -0.06 0.0
0.7030120427199952 -0.06 0.04
0.6571281419012174 -0.06 0.04
0.7479973317145417 -0.06 0.04
0.7325903506195701 -0.020274227246539274 0.0
0.7176321617908783 -0.019839353713154383 0.04
0.7604373514312079 -0.019298436119384588 0.04
-0.8488906624897727 0.019856366527450334 0.04000000000000001
-0.8052789150181434 -0.019306901564895652 0.0
-0.805541091654972 0.020469431563422978 0.04000000000000001
-0.8203038938742353 -0.020636147377884773 0.04
0.897529295217204 0.022569895749215793 0.0
0.8488906624897727 0.019856366527450334 0.0
0.8569454102823642 0.029774901726562965 0.04
0.8777357995360431 0.06 0.0
0.9553815213922792 0.019675326217199102 0.0
0.95349853104827 0.02147987272312249 0.04
0.9103536180674616 -0.021283841161765512 0.0
-0.5450807564691462 -0.01715484187473429 0.04000000000000001
-0.5372746904547943 0.02439300391790418 0.04
-0.49049502097572617 0.000359712426279548 0.04000000000000001
-0.5409244119327052 -0.005150142234760652 0.0
-0.48901428549955095 -0.02776609156780287 0.019771763033692314
-0.4642419910175897 -0.06 0.04
-0.43891524330526177 8.673617379884035e-17 0.04000000000000001
0.7479973317145423 -0.06 0.0
0.9600486361512215 0.06 0.04
1.0 0.06 0.04
1.0 0.06 0.0
0.9192992165657531 0.06 0.0
0.7479973317145423 0.06 0.04
0.7309057796957548 0.02177174945441851 0.039999999999999994
0.7479973317145417 0.06 0.0
0.7613659684934695 0.020945326906433456 0.0
0.7736855084518748 0.020914979208800512 0.04
-0.8570647961856006 -0.015388027432140593 0.0
-0.8569454102823642 0.029774901726562965 0.0
-0.8649535140731797 -0.02016838668923704 0.039999999999999994
-0.1726925416005594 -1.214306433183765e-16 0.039999999999999994
-0.22806385632140147 1.0755285551056204e-16 0.039999999999999994
-0.2006519843784229 0.06 0.0
-0.22806385632140147 -1.1796119636642288e-16 0.0
0.438611990705585 -5.252150912499892e-05 0.04
0.41358849559293387 -0.06 0.04
0.4135884955929341 -0.06 0.0
0.4642419910175897 -0.06 0.0
0.4782715374234063 0.0302584611690398 0.019894876072988572
0.513903464641242 0.06 0.0
0.49049502097572617 0.000359712426279548 0.0
0.46424199101758934 0.06 0.0
0.46424199101758934 -0.06 0.04
-0.8164681441220105 0.022269284396602723 0.0
0.48912437490067595 -0.00041996788971368666 0.04
0.4642419910175897 0.06 0.04
-0.8353421249080566 0.06 0.04
0.8649535140731797 -0.02016838668923704 0.0
0.8973163514988121 0.02144006532192878 0.04
0.5625923446839085 0.06 0.04
0.6103276788742331 0.06 0.0
0.5943416245309461 0.018901239582525348 0.04
0.5790918012159274 0.021628695864523574 0.0
-0.593631917725493 -0.01946781888421301 0.04
-0.6103276788742336 -0.06 0.04
-0.6407079554435648 -0.019738458112036637 0.039999999999999994
-0.6264545933043166 -0.021459100211208025 0.0
-0.6103276788742331 -0.06 0.0
-0.6103276788742336 0.06 0.0
-0.6240641012293764 0.022292119262118645 0.04
-0.6414775595248179 0.020020515529780993 0.0
-0.5943416245309461 0.018901239582525348 0.0
-0.5790918012159274 0.021628695864523574 0.04000000000000001
-0.5625923446839077 0.06 0.04
-0.6103276788742331 0.06 0.04
-0.5625923446839085 0.06 0.0
-0.7325903506195701 -0.020274227246539274 0.039999999999999994
-0.7176321617908783 -0.019839353713154383 0.0
-0.7309057796957548 0.02177174945441851 0.0
-0.7736855084518748 0.020914979208800512 0.0
-0.7613659684934695 0.020945326906433456 0.04
-0.6571281419012174 0.06 0.04
-0.6719637381218919 0.02110482676547816 0.039999999999999994
-0.7030120427199952 0.06 0.04
-0.687851041884645 0.021313940245698455 0.0
-0.029521960903255984 -0.06 0.04
-0.05860957814939871 -6.938893903907228e-17 0.039999999999999994
-0.05860957814939863 5.898059818321144e-17 0.0
-0.08769719539554167 -0.06 0.0
-0.08769719539554144 -0.06 0.04
-0.2823507532564078 -5.204170427930421e-17 0.04
-0.25547572826437986 0.06 0.04
-0.25547572826438003 0.06 0.0
0.38751191920162714 6.938893903907228e-18 0.0
0.3352618020299945 -3.469446951953614e-18 0.0
0.36192316205531716 0.06 0.04
0.3619231620553172 0.06 0.0
-0.36192316205531716 0.06 0.0
-0.335244821032008 -1.1796296425746478e-06 0.0
-0.3352618020299945 -3.469446951953614e-18 0.039999999999999994
-0.38745316199969926 -7.894682722445895e-06 0.0
-0.3619231620553172 0.06 0.04
-0.3092257782484355 0.06 0.04
0.28235075325640757 5.551115123125783e-17 0.039999999999999994
0.30922577824843556 -0.06 0.0
0.335244821032008 -1.1796296425746478e-06 0.04
0.3092257782484355 -0.06 0.04
0.36192316205531716 -0.06 0.0
0.38745316199969926 -7.894682722445895e-06 0.04
0.3092257782484355 0.06 0.0
-0.38751191920162714 6.938893903907228e-18 0.04
-0.28235075325640757 5.551115123125783e-17 0.0
-0.30922577824843556 0.06 0.0
0.6103276788742336 -0.06 0.0
0.593631917725493 -0.01946781888421301 0.0
0.6264545933043166 -0.021459100211208025 0.04
0.4889627886584896 -0.027603176797077415 0.020155725176282127
0.583287522480325 -0.023728770665855194 0.039999999999999994
0.5450807564691462 -0.01715484187473429 0.0
0.5409244119327052 -0.005150142234760652 0.04
-0.48912437490067595 -0.00041996788971368666 0.0
0.3619231620553172 -0.06 0.04
-0.657128141901218 0.06 0.0
0.9600374798207896 -0.027590413451835553 0.0
1.0 0.0 0.04
0.9589620457797374 -0.028177574718636023 0.04
0.5625923446839077 -0.06 0.04
0.5625923446839085 -0.06 0.0
0.7766984080639845 -0.02052537972713625 0.0
-0.438611990705585 -5.252150912499892e-05 0.0
-0.583287522480325 -0.023728770665855194 0.0
-0.9600486361512215 0.06 0.0
-0.95349853104827 0.02147987272312249 0.0
-0.9192992165657539 0.06 0.0
-0.9192992165657531 0.06 0.04
-1.0 0.06 0.0
-0.14473309882269625 -0.06 0.04
-0.14473309882269605 -0.06 0.0
-0.11621514710911887 -1.214306433183765e-16 0.0
-0.17269254160055947 1.1796119636642288e-16 0.0
-0.14473309882269625 0.06 0.0
-0.11621514710911884 1.214306433183765e-16 0.039999999999999994
-0.8353421249080566 -0.06 0.0
-0.8353421249080575 -0.06 0.04
-0.8973163514988121 0.02144006532192878 0.0
-0.897529295217204 0.022569895749215793 0.04
0.11621514710911887 -1.214306433183765e-16 0.039999999999999994
0.05860957814939871 -6.938893903907228e-17 0.0
0.05860957814939863 5.898059818321144e-17 0.039999999999999994
0.08769719539554144 0.06 0.04
0.6103276788742336 0.06 0.04
0.5139034646412424 -0.06 0.0
0.9096368506350345 -0.020963842829632554 0.04
0.805541091654972 0.020469431563422978 0.0
0.8052789150181434 -0.019306901564895652 0.04
0.8203038938742353 -0.020636147377884773 0.0
0.08769719539554144 -0.06 0.0
0.08769719539554167 -0.06 0.04
0.9192992165657531 -0.06 0.04
0.8164681441220105 0.022269284396602723 0.039999999999999994
-0.9103536180674616 -0.021283841161765512 0.04000000000000001
-0.8777357995360431 -0.06 0.0
-0.9096368506350345 -0.020963842829632554 0.0
0.8570647961856006 -0.015388027432140593 0.04
0.7921016077200956 -0.06 0.04
0.8353421249080566 -0.06 0.04
0.7921016077200962 -0.06 0.0
0.4135884955929341 0.06 0.04
0.43891524330526177 8.673617379884035e-17 0.0
-0.7921016077200956 -0.06 0.0
-0.08769719539554144 0.06 0.0
0.14473309882269605 0.06 0.0
0.1726925416005594 -1.214306433183765e-16 0.0
0.11621514710911884 1.214306433183765e-16 0.0
-0.029521960903255984 0.06 0.0
0.0 0.0 0.0
0.17269254160055947 1.1796119636642288e-16 0.04
0.14473309882269625 0.06 0.04
0.0 0.0 0.04
0.2006519843784229 0.06 0.04
0.22806385632140147 -1.1796119636642288e-16 0.04
0.22806385632140147 1.0755285551056204e-16 0.0
-0.6720046167250797 -0.020579604775701428 0.0
-0.7030120427199962 -0.06 0.04
-0.7030120427199952 -0.06 0.0
0.25547572826438003 0.06 0.04
0.30922577824843556 0.06 0.04
0.25547572826437986 0.06 0.0
-0.02952196090325599 0.06 0.04
0.2006519843784232 -0.06 0.04
0.14473309882269605 -0.06 0.04
0.2006519843784229 -0.06 0.0
0.14473309882269625 -0.06 0.0
0.2823507532564078 -5.204170427930421e-17 0.0
-0.36192316205531716 -0.06 0.04
-0.41358849559293387 -0.06 0.0
0.5372746904547943 0.02439300391790418 0.0
0.5139034646412424 0.06 0.04
-0.5139034646412424 -0.06 0.04
0.41358849559293387 0.06 0.0
-0.7171469290115033 0.021165332718839136 0.04
-0.7479973317145417 0.06 0.04
-0.7030120427199962 0.06 0.0
0.08769719539554167 0.06 0.0
0.029521960903255984 -0.06 0.0
-0.02952196090325599 -0.06 0.0
0.02952196090325599 -0.06 0.04
0.02952196090325599 0.06 0.0
0.029521960903255984 0.06 0.04
-0.47805793986482265 0.03008719549728311 0.01940109733029794
-0.4642419910175897 0.06 0.0
0.6103276788742331 -0.06 0.04
1.0 -0.06 0.04
0.9600486361512205 -0.06 0.04
0.9600486361512215 -0.06 0.0
-0.3092257782484355 -0.06 0.0
0.877735799536044 -0.06 0.0
0.8777357995360431 -0.06 0.04
-0.41358849559293387 0.06 0.04
-0.4135884955929341 0.06 0.0
1.0 -0.06 0.0
1.0 0.0 0.0
-0.14473309882269605 0.06 0.04
-1.0 -0.06 0.0
-0.9600486361512215 -0.06 0.04
-1.0 -0.06 0.04
-0.7921016077200962 0.06 0.0
-0.9192992165657531 -0.06 0.0
-0.9600486361512205 -0.06 0.0
-0.7921016077200956 0.06 0.04
-0.7766984080639845 -0.02052537972713625 0.04
-0.5625923446839085 -0.06 0.04
-0.5625923446839077 -0.06 0.0
-0.877735799536044 -0.06 0.04
0.7921016077200962 0.06 0.04
-0.3619231620553172 -0.06 0.0
-0.7479973317145423 0.06 0.0
-0.8777357995360431 0.06 0.04
-0.4135884955929341 -0.06 0.04
-0.46424199101758934 -0.06 0.0
0.513903464641242 -0.06 0.04
-1.0 0.0 0.04
-0.877735799536044 0.06 0.0
-0.30922577824843556 -0.06 0.04
[...]
POINT_DATA 584
VECTORS displacement double
0.00046845933627545774 0.052888365435714936 0.0033075962594955634
0.00012053677136061142 0.05122961345787768 0.004290850754060696
-0.001586808864377949 0.048904464242637995 0.004526983091219121
0.00447776459229373 0.0539678793953682 -3.241676560119667e-05
-0.0015929654342221244 -0.028133827953587293 0.0007056008564247661
-0.0009526264248045286 -0.03951898597249197 0.001415024126662488
-0.005399609614713853 -0.03242233103681897 0.0036332403244312794
-0.0017955640841827152 -0.040914710563943774 0.001408051816080126
-0.0011808476918820118 -0.0262851863801504 0.0005862040852686132
-0.0058772454886717946 -0.020622994314803047 0.0029303626752323385
-0.004763484384829139 -0.0347972423608916 0.003515953441868517
-0.006317297866629624 -0.01827543973322379 0.0029933968199277712
0.00043209653737938413 -0.02339530955104006 -0.0021680004255981377
0.0008507522335096817 -0.030367942270941715 -0.001988625499393851
0.00044849239895801597 -0.03607193179761246 -0.0013326618030541407
-0.0021904744495357194 -0.014803693031639415 0.00025100972830098745
-0.011442311832720539 0.006632113913576488 0.003014507654198727
-0.001791152763463175 -0.00612338530959528 -0.0001532959945156666
-0.010644036405697029 -0.007439129211209648 0.0011599747119614757
-0.012102131018967056 -0.009852731226353243 0.0015430790014235572
0.0037660753126237964 -0.018886195123468983 -0.005126025456537422
0.004219481281585271 -0.021384603687177466 -0.005234226001250708
0.004260456398450715 -0.035884841963329535 -0.004535857208675311
0.005667498244211166 -0.006747075318397472 -0.006014342193522485
0.0007212961994339646 -0.009879668231889665 -0.00299529131247313
0.0012353889197423736 -0.018034960590612707 -0.0026710072850416023
0.0013512466447449475 -0.0022976466500868433 -0.0034064617018490662
0.0022738647211590617 0.028748839457251565 -0.00137748746952406
-0.001599717492549578 0.008803563145272081 0.0007431214299934352
0.0022004344190301333 0.010004576144067927 -0.0012662127435095528
-0.0010477165256156805 0.017303900657527262 0.001133521499372819
-0.0029389216629644097 0.047366370642509724 -0.002420434647487764
-0.0021684199451177982 0.030946723320482244 -0.0019508582386579473
-0.0030400180970520277 0.03181931227415491 -0.0013467849732114803
-0.006463605045826931 0.04073794336655901 0.00046617305663145046
-0.003822830895363907 0.058903233934609826 -0.003921337987525313
-0.003008037253424632 0.05517763905439547 -0.0036363568972544663
0.0013589533312854006 0.049932487966139846 -0.0062478959700990044
0.0005127599163680027 -0.05753785206735217 -0.0028587369056477948
0.0011768634335671104 -0.05799609524369279 -0.004557200699626612
0.0008784967369533425 -0.05646184294096014 -0.003330856709925656
0.0009075234135664418 -0.05977584840754934 -0.0033855566077172486
0.0006375957056999564 -0.05775898031113193 -0.0019115694305141026
-0.000461940938584705 -0.055959673829806725 -0.0001258311970172344
0.00042876945002965077 -0.05230432897487446 -0.002640221305167716
0.00472611472017333 -0.003990760096342611 -0.006025665833946349
-0.005180823921654349 0.05633959207840085 -0.0006510293061171709
-0.0054754690809585655 0.060932865180587874 -0.0013694359308640957
-0.006349371618989389 0.06440422106340064 -0.0014998880158401896
-0.006206718121288753 0.05314119095523842 0.00012572423419869567
-0.007210163452245167 -0.007120913808501036 0.0025963859318995993
-0.0018974486539103906 -0.013270507750737535 -9.571084965626607e-05
-0.0075912856402517255 -0.004161681981193823 0.0024401987843244662
-0.002342139262480779 0.0006312580530352279 -0.0006415880401727745
-0.0018879969005639913 0.0023128369850194215 -0.0007075954413950164
-0.00024786034451363905 0.026780585852968043 0.0012067240283985192
0.0026740996166582966 0.02843553035891843 -0.0018744805750223453
0.00019285176012045992 0.03132342948441836 0.0016360000173210193
0.0010703879191702628 0.027611651101544062 0.000839712400301893
-3.178759126167619e-05 0.010839190016004405 0.00021600269920191812
-0.001851413138324966 0.016531338517520887 -0.0016758158893067866
0.00027887071548612853 0.009386933737805017 3.244080650499052e-05
-3.0008297273541908e-05 -0.04866803104615112 0.0028021362358202568
-0.0008001273362634633 -0.04490699584716056 0.000717746982556741
-0.0011742571063941922 -0.04307794462591037 0.0007128499578022953
-0.00031860875357294277 -0.04902351764691144 -3.316975953905484e-05
-0.0010979921853030057 -0.05137511657603241 0.004078394083168594
-0.002130655997257479 -0.05269368115713844 0.005145070928323149
-0.0004900066584279602 -0.050966579524416154 0.002404052762228469
-0.0009285947482119279 -0.04897331902524523 0.005123959485076605
0.00018932149590716182 -0.05072537733680539 -0.00010703039192999647
0.002158687858235097 0.013240728922609172 -0.0015060166862207118
7.6172906773535e-05 -0.05284634628054207 0.0024399827528439892
-0.0005393742502015331 -0.0503854481340358 0.005589463700177877
0.0036683512828873705 0.022812729804063882 -0.0038278233236821455
0.0016743559545965955 0.03576455472670848 -0.005325693612268531
-0.002619434923805906 0.043972246811290534 -0.0027899299166415496
-0.003195750854310939 -0.05172038776121217 0.004455144068124124
-0.004560490522344968 -0.04407824091871975 0.0038801070577962333
-0.001395857966809045 -0.04852714131904623 0.0018899131731739797
-0.0017020106900349826 -0.04840119106893993 0.0022974315430889995
0.0001883151521084422 -0.053346078011327056 -0.0037066385429544006
-0.005281559241189449 -0.04858413891600648 -0.004032070409822199
0.0022433507063314277 -0.041883865451821066 -0.0022524928119007004
0.0008369133356746792 -0.04551795417298193 -0.0032326704379570317
-0.004500705951092366 -0.04935286384518731 -0.00331982526780419
0.0017205657684631608 -0.0449573917352525 -0.006346852688231941
0.0028181756418114933 -0.04117969006891288 -0.004265252950880928
0.002435724920275426 -0.04341726125287175 -0.0045103070518536705
0.000522846350267148 -0.05093647938490623 -0.004199997442324115
0.00039883006037685844 -0.05287038687817663 -0.0047559283913781855
0.001353896218708346 -0.059091559654526137 -0.005679869547853042
0.0011152498612819156 -0.042024523977606094 -0.006487169317767113
0.0016672381924886129 -0.05894545043982413 -0.006694520399854885
-0.0009332062152385601 -0.0151227368780795 -0.0004209658119455495
-0.0014848852007541809 -0.021716752404785343 -0.001634307526108235
0.000835207020961684 -0.016821355733021796 -0.0020912892073108786
0.0016885950017517407 -0.0019622613834295965 -0.00128418248606676
0.0022158759777410747 -0.004759435345607145 -0.0016648380625694863
-0.0016573185793420104 -0.047589432516704465 -0.005169464989783633
0.0006312330981151535 -0.038860618968932774 -0.0030016823822769153
-0.0016736069995413787 -0.016055462148028707 -0.0038753939161255877
-0.0011165257623451119 -0.03136852754927532 -0.003011555159038081
0.0008663486741551597 0.05525242148125651 0.0028878493931157813
0.0013673202312555455 0.05575027820233247 0.0020051922060707306
0.0018739746382419368 0.05527864697221081 0.0020067466082305577
0.0019476604369099266 0.05451031403614848 0.002559982131812432
0.0011197720612502221 0.05608745617951682 0.0027685815726116677
0.000873481398193415 -0.00938763706107921 -0.0006126836782382075
-0.0027077984122144106 0.0024417818598995123 -0.0029238765195204815
-0.0022505833415943084 0.0003005647954331955 -0.002629448363897435
-5.749364770968331e-05 -0.03680036938334528 0.0033931360443475167
-0.000340974462044072 -0.022066985092165408 0.003770925519689419
0.001437181478111347 -0.03170192563748493 0.00569454924569727
0.0010959765436980957 -0.030332885714480135 0.005538316950720559
-0.0014303296498919507 -0.03589841420756179 -0.004396628123929733
0.0006578583895703511 -0.02843903561470065 -0.0013459875047956748
0.00036868068195458094 -0.026660435799388885 -0.001157165556601221
0.0011223376846978077 -0.04380805540628356 -0.0019359540932062567
-0.0017457618563574123 -0.033780968307333493 -0.0044652932692798054
-0.0020859062439216704 -0.019267305959739196 -0.0035277886698192825
0.0005023858226196144 -0.006409670188499797 0.004032272300967548
-0.0022112639366439566 -0.01507984760491679 0.002297134295512381
-0.00016462130955044799 -0.023283933904344436 0.0038038272221131556
-0.0023446166493670635 -0.01670603993575497 0.002064237371814628
-0.0019686995160155107 -0.028609139433699582 0.0016681114389494804
0.00045514480123573584 -0.038251364419724265 0.0034809635860033037
0.0016772847436719279 -0.01335261715909425 0.005511186727655998
0.0008420917998999358 -0.04199159156667473 -0.0018925392132218095
0.001170301418285448 -0.01095911224971027 -0.0006188149535776361
-0.0017109899936614834 -0.020747901360918256 -0.0034966492714052413
0.003330583768826079 -0.041973935494081224 -0.003034864568352732
-0.00023906296153684964 -0.04638941056477742 -0.00037757944405047967
0.000893288326368933 -0.04106951035633482 -0.0010154906810709336
1.8040047808020438e-05 -0.051796968979675354 0.00107278364910156
0.000455702450549031 -0.050805185481455364 -0.00041197493817032025
-2.6553662941274276e-05 -0.05273792359432338 0.000661520658485658
0.00032466484120101966 -0.054967672472135035 0.001318659542594527
0.0008432889446591402 -0.05835210724821768 -0.00307255097202379
-0.0018864128075467192 -0.029497026594525626 0.001799961612418971
-0.0009047815735375065 -0.04575009422820373 -0.004481511489463285
0.0020321383775486275 0.059646722618001434 -0.00800396705001371
-0.0005245401539835694 0.06290957897976744 -0.006397450424184691
0.0030949158658858888 0.05582394719617644 -0.007837887519014243
0.0023553414093539157 -0.053999442956443974 -0.0021722761477830747
0.00200101600686618 -0.05134202768736323 -0.002195552257219274
0.0009658087602442097 0.006495411341053722 -0.003811041710977914
0.0006599281808284599 -0.05401564424862227 -0.0026108551909730156
-4.258550400922251e-05 -0.0543323083531699 -0.0036644059007101652
-0.0008227066719761862 0.05233930910494861 -0.003766214026289559
0.002985315721891438 0.04973698654646435 -0.0004090366734972796
0.0003877051625132945 0.04230244053631271 -0.0034954898789220155
-0.0005394925097398541 0.04579469448251613 -0.005352904353500532
0.000852377581406178 0.04548464637740978 -0.0035483861165212967
0.0022258666622398606 0.03521056033362806 0.0023569691353297903
0.002744526676120515 0.03468697962586466 0.002265862147216191
2.385051973292016e-05 0.04586090572356788 0.0010632025661870487
0.0012493224955554916 0.026608304542768104 0.0006249620298490621
-0.0022112372471796734 0.03735324811229431 -0.0007100971684993122
-4.8192909669107424e-05 0.04660698812326368 0.0014661713041289796
-0.013049647755877115 0.019745503823411555 0.004074520748743258
-0.012262444104784947 0.022572026500309962 0.0036756432834603816
0.0038662219035660366 0.03869986092438948 -0.001353953560237218
0.004332282252396895 0.04118259570449041 -0.0013592170208531465
-0.00010340186592138942 0.04810145686845679 0.0036585391883305345
0.0013432864235005306 0.05607790685739358 0.003450770695039853
0.0011758491418164532 0.055806346726812756 0.003386483119452098
0.0015285799394224168 0.053300514286998384 0.003770112628535309
-0.003930038981347949 -0.04698695862976319 0.003908843761222879
0.0005426881362689465 -0.05177740454250484 -0.0008961493691125556
0.0022115912163534973 0.04679385686316984 -0.006373998641511418
-0.00271884713734686 0.016557806953636484 -0.0015039233588319027
0.0018479208289240876 0.013922262093892586 -0.004336055683631354
0.0013684089287067471 0.02186469458555627 -0.004650677373271235
-0.0011247716863858682 0.04994889855669867 0.003378848831148583
-0.0010863791533152916 0.04946204251388762 0.0032383616110264256
0.0054622953105306115 0.04850588093380059 -0.009439182214385507
-0.0024495840420993864 0.017315281673067555 -0.0013228477180541928
0.0007440180118714939 0.0460525227199764 0.002233613012724129
-0.013513322528076945 0.03153746507977081 0.0050009498579315775
-0.00041760157258690213 0.042586406692380986 0.0021340530678528695
0.001760245621103778 0.029906519080113263 -0.005178225019847935
0.0060178062356025085 0.00961604093932182 -0.007075018019513262
0.005991214742124169 0.023480375320441935 -0.008097538267529944
0.005170246705065568 0.012515105271919996 -0.00704407468234727
0.0006371079929964651 -0.04378769868644633 0.005485161624646858
-0.00036605962765172396 -0.04684946525352115 0.0029710231080451173
-0.012668216639882147 0.004170890193748092 0.003186485759855858
-0.0006715304287785396 0.04932488775846839 0.0002585508451906458
0.0029927504138860766 0.04001848773966077 0.00463328329178514
0.0006861830214755616 0.031012924897889756 0.003958743799039594
8.546375371911828e-05 0.04827837373835685 0.003696546801225938
-4.5287972926173005e-05 0.05939713909279714 0.001378676262413225
8.440039500918326e-05 0.061361709845025834 0.0027626720545103818
0.0005167751875504848 0.03002737505223 0.0040015631879933775
0.0031034484991961987 0.039783852663712864 0.004256170688159436
-0.00015794372698676803 0.062371470280288145 0.0026889251206474825
0.0026257185865714455 0.0224608480905434 0.005021775208964162
-0.00028825603912549833 0.013754267502741165 0.004043369527776457
-0.00018152874762671057 0.01441238670658112 0.004099265566601687
-0.001107205800808288 -0.03148956655453477 -0.0034028787183069567
-0.009329189287181672 -0.02441696490049714 -0.0007480622280776288
-0.010724200238582214 -0.025454470006363677 -0.000833923851865495
0.0030240411675557526 0.0037425835547368028 0.005376889139452178
0.0020301946012679507 -0.014343422879372151 0.0054600384921927765
0.0024784899303147575 0.004530842430941975 0.005408467019432259
-0.0004958881688444953 0.059688386230735344 0.0016610897301713677
-0.0028505518498398662 0.019887320714023403 0.002811425267955569
-0.0034877121036533724 0.0425930338064548 0.004052855512142089
-0.002422167123485679 0.02094181705766775 0.002850182743391423
-0.0028308359186979097 0.04199893982049329 0.0030490978413676827
0.0003297493118146469 -0.0053346739076826945 0.003973071731001702
0.0015155141230590661 -0.03527428266588683 0.0012498323744077253
0.0010458889030237368 -0.048510665944900326 0.0006735961977502678
-0.0010826277521690643 -0.052684162587936324 0.0029385311900326414
-0.0014863892388848796 -0.05497201556488881 0.005378683990494323
-0.00047045486597727647 -0.05727988106585168 -0.0005524412940434749
0.0003081256741827311 -0.04229641279098704 0.0053535357158256075
0.0011806849290302134 -0.022365601642762634 -0.0028135677665335457
0.004252185212494546 -0.0065252002442439845 -0.0034789554346683037
1.69838715446364e-05 -0.02134165459810003 -0.00377427722541612
0.001966365869312937 0.053314064777829726 0.003828601641317266
-0.0005843378930567005 0.0626907806197898 0.0033157847325601827
0.0013899467993652324 0.0553794512677497 0.002949009667624208
-0.0014221533095572583 0.06299485785884863 0.003828259604724581
0.0018134088722291078 0.05868427656055598 0.0027555204430778587
0.0015428665985939892 0.05900364795821891 0.002745313763480481
0.0008385049590260941 -0.0566096662093631 -0.004460248708282651
0.00024092132373235172 -0.05605477356750804 -0.005836160674350487
0.00391734002607909 -0.044059341172000936 -0.0029454585936919387
0.006702114293739851 0.062253950733181684 -0.011829796317348405
0.006066498824008208 0.05733733435962019 -0.010679699451603004
0.005236956067903182 0.05998737564442005 -0.010497042053611861
0.002372523771854222 -0.01893212236954955 0.0016236208018026946
0.005440187140131112 0.03967764305106081 -0.008885360925795782
0.0061931358882215725 0.03630384928776891 -0.008918755695646707
-0.0008008451805918643 -0.04819242289453234 -0.0050879992649784725
-0.0006180800740668891 -0.0499195490501503 -0.00512449190881323
0.0056335974213853135 0.06572470653940034 -0.011736276667305609
-0.0014252660896237502 0.06599223233384467 -0.006637767229929764
-0.0028643243214771957 0.038838401495663366 -0.0010144793713498087
-0.012076851727156925 0.06593625255375274 0.009905712947559889
-0.013339997522511868 0.04642585928523404 0.00519833392933476
-0.012605683770110437 0.07521402257238594 0.009598053385487337
0.003306807330754538 0.004299960994950269 -0.002575312628177909
-0.013914503166865837 0.04615341878557087 0.005405103167763828
-0.013119355698755645 0.04789425454806897 0.007451497241209686
0.004112918583662949 0.006445723138455725 -0.0028472685916886777
-0.001173284471715119 0.0014497786449160588 0.0007444000027979775
-0.0024978240995206643 -0.05284031030679179 -0.0011980616260384397
-0.001806416252353745 -0.05527185476381323 -0.0017605077621097327
-0.012423270039795905 0.03440268743665476 0.005324268959377434
-0.007837020850502365 0.009651004087140926 0.0017487599749261731
0.0018987237976351588 -0.03707514237349901 0.0011960798327867513
0.002782570609530852 -0.00915252897544416 -0.003435069284034726
0.001621877895893659 0.03817754412609192 -0.004150319184767549
0.0005761103278459342 -0.046363759848047296 0.0007854522265323018
0.0004493655279549574 -0.05761835713208496 -5.198401455107897e-05
0.0011821495024823194 -0.053651939825716054 -0.0010519387414675363
0.003479441489500219 0.05443246214016109 0.008006924165671591
0.0011260317442823222 0.03495302668345892 -0.003699432362451504
0.0019013330817597436 -0.01696121853397637 0.001799190774319241
0.0023842141920215744 -0.0007204083869313233 0.0020171492595405156
-0.0010913689252538532 0.05013121826338101 0.00036384595627086676
-0.0028139294577911355 0.006501506242837859 0.002853886242116734
0.0028235507643323996 -0.002092088180095837 0.002031181463678407
0.000441429282499951 0.06234364808805622 -0.005748407162813493
-0.014759753931717207 0.05168751906373463 0.005251121889227889
0.001200856105078757 -0.058796808940064386 -0.006045510690234885
-0.001282117404637392 -0.026066569227820687 -0.001067470353460132
-0.006214302732957102 0.05959500145175436 -0.0006982740159849273
0.0040519369082572965 0.04886047293721023 -0.004630160617040597
0.0010945156608154162 -0.057114825356522424 -0.0060235511538251066
-5.461376570946194e-06 -0.053962992100065686 -0.005700073053110024
-0.008891520343490727 -0.03178339106232582 -0.0030498015325374286
-0.0052931861713848985 0.03658211110285814 0.0009460782304655483
-0.004560009159574979 0.0504676450016168 0.0004972787490866692
-0.003223083326011884 0.006208191025850546 0.003043385803972687
0.005287324400924351 0.02671195490173409 -0.00802096839642275
0.00027535809886915057 -0.05930844704197401 -0.0008733247751644051
-0.002375795926065744 0.017757624287228234 -0.0016109705208741053
0.0027923793635062795 0.020809761260600974 -0.003332538242555273
-0.007944758603668433 0.02465810470180064 0.0001680898815667975
-0.007619390836168885 0.020620301565287304 0.001343032408048053
-0.00838802545015861 0.012301383659661585 0.0013520212373535985
0.005048820666457456 0.051985832585877925 -0.009724343199598936
-0.0037606239267701895 -0.049823876899258594 0.0044159090026992896
-0.00930479430353848 -0.028609897652851338 -0.0022788924611032834
0.0037108400885885987 -0.0326760102159937 -0.004241197815371582
0.002123070323859399 0.02200854887174123 0.0027201410530051026
0.002472725848325408 0.02024058070945655 0.0022163914367707557
0.0023498520279560055 0.02311893169025737 0.005161647199306594
-0.01036225299226851 0.05019354369068746 0.007311623878626247
0.0024445963572334714 0.05034437694504509 0.006221621483660387
-0.006891685871363385 0.045364865938885626 0.007356693920211781
-0.001850888047967533 0.019440341083432736 0.0015217291405682095
-0.0004302712165815877 0.04852459778716968 0.003853315785516338
0.0015570906149107201 0.012094215741920987 -0.0016171336800529204
0.0020725962225313236 0.03186677029818222 -0.0008515479712657909
0.001635616300911198 0.0010811663352375052 0.0024017495861043746
0.001192522592202073 0.02248763729893123 0.002357736669190309
-0.00019653243054277265 0.012476148048456353 -2.9953846317430856e-05
0.0015088273195822785 -0.05278024076825603 -0.0050434721890881724
-0.0019905927540520454 -0.04941740858070037 -0.0026039414219846896
0.0031016223361494725 -0.03789091814310056 -0.005198842056760952
0.0010731309279761636 0.05839268735710905 0.005413028134965181