# vtk DataFile Version 2.0
Really cool data
ASCII
DATASET UNSTRUCTURED_GRID
POINTS 584 double
-1.0 0.0 0.0
-0.9600374798207896 -0.027590413451835553 0.04
-0.9589620457797374 -0.028177574718636023 0.0
-0.9553815213922792 0.019675326217199102 0.04
0.6719637381218919 0.02110482676547816 0.0
0.6414775595248179 0.020020515529780993 0.04
0.6571281419012174 0.06 0.0
0.6240641012293764 0.022292119262118645 0.0
0.687851041884645 0.021313940245698455 0.04
0.7030120427199962 0.06 0.04
0.657128141901218 0.06 0.04
0.7030120427199952 0.06 0.0
0.6885310613992013 -0.0196061899732657 0.0
0.6720046167250797 -0.020579604775701428 0.04
0.6407079554435648 -0.019738458112036637 0.0
0.7171469290115033 0.021165332718839136 0.0
-0.7921016077200962 -0.06 0.04
-0.7604373514312079 -0.019298436119384588 0.0
-0.7479973317145423 -0.06 0.04
-0.7479973317145417 -0.06 0.0
0.7030120427199962 -0.06 0.0
0.7030120427199952 -0.06 0.04
0.6571281419012174 -0.06 0.04
0.7479973317145417 -0.06 0.04
0.7325903506195701 -0.020274227246539274 0.0
0.7176321617908783 -0.019839353713154383 0.04
0.7604373514312079 -0.019298436119384588 0.04
-0.8488906624897727 0.019856366527450334 0.04000000000000001
-0.8052789150181434 -0.019306901564895652 0.0
-0.805541091654972 0.020469431563422978 0.04000000000000001
-0.8203038938742353 -0.020636147377884773 0.04
0.897529295217204 0.022569895749215793 0.0
0.8488906624897727 0.019856366527450334 0.0
0.8569454102823642 0.029774901726562965 0.04
0.8777357995360431 0.06 0.0
0.9553815213922792 0.019675326217199102 0.0
0.95349853104827 0.02147987272312249 0.04
0.9103536180674616 -0.021283841161765512 0.0
-0.5450807564691462 -0.01715484187473429 0.04000000000000001
-0.5372746904547943 0.02439300391790418 0.04
-0.49049502097572617 0.000359712426279548 0.04000000000000001
-0.5409244119327052 -0.005150142234760652 0.0
-0.48901428549955095 -0.02776609156780287 0.019771763033692314
-0.4642419910175897 -0.06 0.04
-0.43891524330526177 8.673617379884035e-17 0.04000000000000001
0.7479973317145423 -0.06 0.0
0.9600486361512215 0.06 0.04
1.0 0.06 0.04
1.0 0.06 0.0
0.9192992165657531 0.06 0.0
0.7479973317145423 0.06 0.04
0.7309057796957548 0.02177174945441851 0.039999999999999994
0.7479973317145417 0.06 0.0
0.7613659684934695 0.020945326906433456 0.0
0.7736855084518748 0.020914979208800512 0.04
-0.8570647961856006 -0.015388027432140593 0.0
-0.8569454102823642 0.029774901726562965 0.0
-0.8649535140731797 -0.02016838668923704 0.039999999999999994
-0.1726925416005594 -1.214306433183765e-16 0.039999999999999994
-0.22806385632140147 1.0755285551056204e-16 0.039999999999999994
-0.2006519843784229 0.06 0.0
-0.22806385632140147 -1.1796119636642288e-16 0.0
0.438611990705585 -5.252150912499892e-05 0.04
0.41358849559293387 -0.06 0.04
0.4135884955929341 -0.06 0.0
0.4642419910175897 -0.06 0.0
0.4782715374234063 0.0302584611690398 0.019894876072988572
0.513903464641242 0.06 0.0
0.49049502097572617 0.000359712426279548 0.0
0.46424199101758934 0.06 0.0
0.46424199101758934 -0.06 0.04
-0.8164681441220105 0.022269284396602723 0.0
0.48912437490067595 -0.00041996788971368666 0.04
0.4642419910175897 0.06 0.04
-0.8353421249080566 0.06 0.04
0.8649535140731797 -0.02016838668923704 0.0
0.8973163514988121 0.02144006532192878 0.04
0.5625923446839085 0.06 0.04
0.6103276788742331 0.06 0.0
0.5943416245309461 0.018901239582525348 0.04
0.5790918012159274 0.021628695864523574 0.0
-0.593631917725493 -0.01946781888421301 0.04
-0.6103276788742336 -0.06 0.04
-0.6407079554435648 -0.019738458112036637 0.039999999999999994
-0.6264545933043166 -0.021459100211208025 0.0
-0.6103276788742331 -0.06 0.0
-0.6103276788742336 0.06 0.0
-0.6240641012293764 0.022292119262118645 0.04
-0.6414775595248179 0.020020515529780993 0.0
-0.5943416245309461 0.018901239582525348 0.0
-0.5790918012159274 0.021628695864523574 0.04000000000000001
-0.5625923446839077 0.06 0.04
-0.6103276788742331 0.06 0.04
-0.5625923446839085 0.06 0.0
-0.7325903506195701 -0.020274227246539274 0.039999999999999994
-0.7176321617908783 -0.019839353713154383 0.0
-0.7309057796957548 0.02177174945441851 0.0
-0.7736855084518748 0.020914979208800512 0.0
-0.7613659684934695 0.020945326906433456 0.04
-0.6571281419012174 0.06 0.04
-0.6719637381218919 0.02110482676547816 0.039999999999999994
-0.7030120427199952 0.06 0.04
-0.687851041884645 0.021313940245698455 0.0
-0.029521960903255984 -0.06 0.04
-0.05860957814939871 -6.938893903907228e-17 0.039999999999999994
-0.05860957814939863 5.898059818321144e-17 0.0
-0.08769719539554167 -0.06 0.0
-0.08769719539554144 -0.06 0.04
-0.2823507532564078 -5.204170427930421e-17 0.04
-0.25547572826437986 0.06 0.04
-0.25547572826438003 0.06 0.0
0.38751191920162714 6.938893903907228e-18 0.0
0.3352618020299945 -3.469446951953614e-18 0.0
0.36192316205531716 0.06 0.04
0.3619231620553172 0.06 0.0
-0.36192316205531716 0.06 0.0
-0.335244821032008 -1.1796296425746478e-06 0.0
-0.3352618020299945 -3.469446951953614e-18 0.039999999999999994
-0.38745316199969926 -7.894682722445895e-06 0.0
-0.3619231620553172 0.06 0.04
-0.3092257782484355 0.06 0.04
0.28235075325640757 5.551115123125783e-17 0.039999999999999994
0.30922577824843556 -0.06 0.0
0.335244821032008 -1.1796296425746478e-06 0.04
0.3092257782484355 -0.06 0.04
0.36192316205531716 -0.06 0.0
0.38745316199969926 -7.894682722445895e-06 0.04
0.3092257782484355 0.06 0.0
-0.38751191920162714 6.938893903907228e-18 0.04
-0.28235075325640757 5.551115123125783e-17 0.0
-0.30922577824843556 0.06 0.0
0.6103276788742336 -0.06 0.0
0.593631917725493 -0.01946781888421301 0.0
0.6264545933043166 -0.021459100211208025 0.04
0.4889627886584896 -0.027603176797077415 0.020155725176282127
0.583287522480325 -0.023728770665855194 0.039999999999999994
0.5450807564691462 -0.01715484187473429 0.0
0.5409244119327052 -0.005150142234760652 0.04
-0.48912437490067595 -0.00041996788971368666 0.0
0.3619231620553172 -0.06 0.04
-0.657128141901218 0.06 0.0
0.9600374798207896 -0.027590413451835553 0.0
1.0 0.0 0.04
0.9589620457797374 -0.028177574718636023 0.04
0.5625923446839077 -0.06 0.04
0.5625923446839085 -0.06 0.0
0.7766984080639845 -0.02052537972713625 0.0
-0.438611990705585 -5.252150912499892e-05 0.0
-0.583287522480325 -0.023728770665855194 0.0
-0.9600486361512215 0.06 0.0
-0.95349853104827 0.02147987272312249 0.0
-0.9192992165657539 0.06 0.0
-0.9192992165657531 0.06 0.04
-1.0 0.06 0.0
-0.14473309882269625 -0.06 0.04
-0.14473309882269605 -0.06 0.0
-0.11621514710911887 -1.214306433183765e-16 0.0
-0.17269254160055947 1.1796119636642288e-16 0.0
-0.14473309882269625 0.06 0.0
-0.11621514710911884 1.214306433183765e-16 0.039999999999999994
-0.8353421249080566 -0.06 0.0
-0.8353421249080575 -0.06 0.04
-0.8973163514988121 0.02144006532192878 0.0
-0.897529295217204 0.022569895749215793 0.04
0.11621514710911887 -1.214306433183765e-16 0.039999999999999994
0.05860957814939871 -6.938893903907228e-17 0.0
0.05860957814939863 5.898059818321144e-17 0.039999999999999994
0.08769719539554144 0.06 0.04
0.6103276788742336 0.06 0.04
0.5139034646412424 -0.06 0.0
0.9096368506350345 -0.020963842829632554 0.04
0.805541091654972 0.020469431563422978 0.0
0.8052789150181434 -0.019306901564895652 0.04
0.8203038938742353 -0.020636147377884773 0.0
0.08769719539554144 -0.06 0.0
0.08769719539554167 -0.06 0.04
0.9192992165657531 -0.06 0.04
0.8164681441220105 0.022269284396602723 0.039999999999999994
-0.9103536180674616 -0.021283841161765512 0.04000000000000001
-0.8777357995360431 -0.06 0.0
-0.9096368506350345 -0.020963842829632554 0.0
0.8570647961856006 -0.015388027432140593 0.04
0.7921016077200956 -0.06 0.04
0.8353421249080566 -0.06 0.04
0.7921016077200962 -0.06 0.0
0.4135884955929341 0.06 0.04
0.43891524330526177 8.673617379884035e-17 0.0
-0.7921016077200956 -0.06 0.0
-0.08769719539554144 0.06 0.0
0.14473309882269605 0.06 0.0
0.1726925416005594 -1.214306433183765e-16 0.0
0.11621514710911884 1.214306433183765e-16 0.0
-0.029521960903255984 0.06 0.0
0.0 0.0 0.0
0.17269254160055947 1.1796119636642288e-16 0.04
0.14473309882269625 0.06 0.04
0.0 0.0 0.04
0.2006519843784229 0.06 0.04
0.22806385632140147 -1.1796119636642288e-16 0.04
0.22806385632140147 1.0755285551056204e-16 0.0
-0.6720046167250797 -0.020579604775701428 0.0
-0.7030120427199962 -0.06 0.04
-0.7030120427199952 -0.06 0.0
0.25547572826438003 0.06 0.04
0.30922577824843556 0.06 0.04
0.25547572826437986 0.06 0.0
-0.02952196090325599 0.06 0.04
0.2006519843784232 -0.06 0.04
0.14473309882269605 -0.06 0.04
0.2006519843784229 -0.06 0.0
0.14473309882269625 -0.06 0.0
0.2823507532564078 -5.204170427930421e-17 0.0
-0.36192316205531716 -0.06 0.04
-0.41358849559293387 -0.06 0.0
0.5372746904547943 0.02439300391790418 0.0
0.5139034646412424 0.06 0.04
-0.5139034646412424 -0.06 0.04
0.41358849559293387 0.06 0.0
-0.7171469290115033 0.021165332718839136 0.04
-0.7479973317145417 0.06 0.04
-0.7030120427199962 0.06 0.0
0.08769719539554167 0.06 0.0
0.029521960903255984 -0.06 0.0
-0.02952196090325599 -0.06 0.0
0.02952196090325599 -0.06 0.04
0.02952196090325599 0.06 0.0
0.029521960903255984 0.06 0.04
-0.47805793986482265 0.03008719549728311 0.01940109733029794
-0.4642419910175897 0.06 0.0
0.6103276788742331 -0.06 0.04
1.0 -0.06 0.04
0.9600486361512205 -0.06 0.04
0.9600486361512215 -0.06 0.0
-0.3092257782484355 -0.06 0.0
0.877735799536044 -0.06 0.0
0.8777357995360431 -0.06 0.04
-0.41358849559293387 0.06 0.04
-0.4135884955929341 0.06 0.0
1.0 -0.06 0.0
1.0 0.0 0.0
-0.14473309882269605 0.06 0.04
-1.0 -0.06 0.0
-0.9600486361512215 -0.06 0.04
-1.0 -0.06 0.04
-0.7921016077200962 0.06 0.0
-0.9192992165657531 -0.06 0.0
-0.9600486361512205 -0.06 0.0
-0.7921016077200956 0.06 0.04
-0.7766984080639845 -0.02052537972713625 0.04
-0.5625923446839085 -0.06 0.04
-0.5625923446839077 -0.06 0.0
-0.877735799536044 -0.06 0.04
0.7921016077200962 0.06 0.04
-0.3619231620553172 -0.06 0.0
-0.7479973317145423 0.06 0.0
-0.8777357995360431 0.06 0.04
-0.4135884955929341 -0.06 0.04
-0.46424199101758934 -0.06 0.0
0.513903464641242 -0.06 0.04
-1.0 0.0 0.04
-0.877735799536044 0.06 0.0
-0.30922577824843556 -0.06 0.04
[...]
POINT_DATA 584
VECTORS displacement double
0.004578616503639023 -0.00781633249853693 -0.0006780783278367412
0.005562012215403404 -0.004463050549874759 -0.0001276410595440956
0.0047052274495966535 -0.0007229049213587365 0.001428021296022845
-0.0038794838874153022 0.010921951634781029 0.0020041582215996646
-0.010414385538786023 0.017544410515287698 -0.00010738680555671495
-0.011698311291154352 -0.01812309908769271 0.01023527070599446
0.009867212953681235 0.010969126421657203 0.0279170333873553
-0.010782049502768877 -0.0012519900982774495 0.005585108293719436
-0.003751181997534209 -0.010859129589983117 0.0023194082729208125
0.02354058223716112 0.025298175658693835 1.2576561687922862e-05
0.022762489816571554 0.023405238389170187 0.012491865682200355
0.006719349462067081 0.02183076027715128 0.01668022465035849
0.002038928308057982 0.026911090160072773 -0.004546830301416847
-0.006323690856554753 0.03640661519178114 -0.006461335811005017
0.009213681763278168 0.017823175735992104 -0.0012062342887333413
-0.02618233520763479 0.004592198702726169 0.002776337330055835
-0.0035337801744424347 0.059836728330003315 0.00043933912230656344
0.010084136637081274 0.0026561230400219088 -0.002953472197774271
0.005205312479673844 -0.008942879563525527 -0.0012606774084616714
0.0013908951370765251 -0.009526995812966203 0.002055113715993493
-0.03518306324624277 0.04078618391946832 -0.012358587620348391
-0.0432410416805839 0.07478719222971461 -0.0017097811372720315
0.0025814199220495636 -0.05873107600904497 -0.023771325061270436
0.0007987644892154253 -0.04949694062837963 -0.012630131198059872
0.011738203391660935 -0.03285035651776442 -0.00727891528331423
0.027131895713563125 -0.038500608858994374 -0.004826113776171091
0.0069307004725731956 -0.06253917333663593 -0.002681309641238711
0.0006070598991433732 0.011448259286113326 -0.0020563989489495557
-0.011126077251895095 0.0029711174236204813 -0.0005253591573869475
-0.0024216914866389515 -0.004887916649664656 0.0008288349487557253
-0.01367225541554831 -0.005805344382257167 -0.0012706034455800671
0.008348488073163969 -0.012683952824922698 -0.0010175074131776381
-0.042454642817106425 0.01221806959998614 -0.014024945435148699
-0.05381920466227881 -0.09208548643990212 -0.011028080021022029
-0.07198303220161888 -0.0865001920095559 0.026678539075441488
-0.0021230075143132063 0.0011464514192862517 0.003300261611380132
-0.017294679414761517 0.0030634642518619732 0.0008691609652104965
0.016267162733563607 -0.01763396436105325 -0.0035724867027417634
0.0028895287318550537 2.3252189733871996e-05 -0.0046117717580694524
0.000607558687581648 0.0056377463654849296 -0.0034457066303878498
-0.0017994906969066255 -0.006727556467139652 0.0032840094338923978
0.0028925282708201945 0.00273048626006532 -0.0031506560089709056
-0.016185146965405125 0.0032481411072679094 0.00036589898239392595
0.00411203707419139 0.05241818430837774 0.008434652017310317
0.00727130658061431 -0.011185062496431298 0.004387771060300519
-0.012725680735520497 -0.043008619266196084 -0.011499091358748721
-0.043270946291384074 0.006024644976781299 -0.0022935326178995475
-0.041438896627687155 -0.01144916165807486 -0.0004405806213612362
-0.028940048389511606 -0.012559921018982128 0.005875211951094215
-0.03330835681458485 0.01197146829573119 -0.0012961202742155838
0.013435985583052985 0.07359180178667707 -0.02249399023208995
-0.02290709447544849 0.010333599006819159 -0.015199771236073465
-0.001216897763594001 0.07268253356312844 0.0016286840727046889
-0.07945883642763248 0.0229465906643166 -0.017728928267300676
-0.07431947256254491 0.026710417532359396 0.011096287094314289
0.001684877387813534 -0.0024180072817914016 0.0007379208156391979
0.0024654670760456913 0.008083291038900063 -9.499763861350409e-05
0.0015634573765870765 -0.0051330675602975296 -0.0025038138541046066
-0.0036940699911448133 0.011187858502187347 0.004004039179713883
0.0025622679403635193 -0.012878197891972719 -0.004859868880792185
-0.008266608113775902 0.019835263848118637 0.002222524768564548
-0.0007839502537928531 -0.010803188668470423 0.001997924076507272
0.0017753870962329723 0.027356025307889345 0.003823423513297323
0.013579500134655009 0.003129722552626531 0.002242879446870727
0.010729513470024637 0.001467341343068202 0.005132397256377478
-0.002984348945267624 -0.003511025911539503 0.0036689653807493974
0.008866763242723064 -0.019699865558744523 -0.0030561925850073647
0.005164347378255014 0.019129306386444018 -0.0021522341853907894
0.00026494794376997745 -0.019302250825996826 -0.001213882068726079
0.009611893649120077 -0.01752400916896572 0.0012733137604487338
-0.0031436537358109015 -0.006768423789618029 0.002603502628491596
-0.0005383458491545034 0.005109930728728774 -0.0009541427910342623
0.00474812426129196 -0.021093469193381318 0.000383284331243775
0.007893306078201406 -0.029565868894937238 -0.0024988979552721742
0.006586996884592677 0.012167763382541769 -0.0010488703758075113
0.01359826217368986 0.025572975287544184 -0.015293292318518666
0.001823611216974412 -0.009784613568753802 0.0026590001578960945
0.0290259312560816 -0.026145289600713283 0.0027629553783814764
0.013680798560004266 0.013448439599983562 0.013378772891874018
0.0027250869888894237 -0.04032906688965218 0.004705084208658651
0.004245254070923136 -0.01966212850533255 0.0009051418235139874
0.009210597982678708 0.007307782531498401 0.002095541902849799
-0.0056792770183379145 0.01545977017207384 0.005793109376116612
-0.002687202182212169 0.017310995277883708 0.004070297394941738
0.002096116463741635 0.006554737784127686 -0.0017920006382580822
-0.006372815840267519 0.01079204675362743 0.002022506218885714
-0.007576657121465198 -0.0057022405053546305 0.00954838856267017
0.0028682452050637214 -0.028464894780943887 0.002853259685849638
-0.001794572089199835 -0.007074620578419155 0.001322126837957268
0.0037290486366763423 0.0007285849780745976 -0.001434848413603584
0.004228350299491377 0.0016994755854620185 -0.001194390138936693
-0.006275992809183176 0.0161849601963166 -0.0031781477235017113
-0.008346701245154558 0.0031752365764479793 -2.0947744501875173e-05
-0.007220355869317745 0.011621984583461684 0.003303471600661102
0.007442707276172218 -0.00341217944579267 -0.0008347477708262634
0.004553715573414906 -0.006430654088647622 0.0012241815776976451
0.007021019741574644 -0.0004410033333540478 -0.0006058212804002693
-0.0016079715432956812 -0.011830265923380578 -0.002254871106053229
0.0019784654931916646 -0.017361776824667042 0.0034937500134351795
0.006782701569577747 0.002458664664534511 0.004232983805331515
-0.007591036923404133 -0.0031955786676872914 -0.0004361363125360557
0.007047090713431188 0.037232634997980706 -0.0024667708134084422
-0.000570382462576959 0.005122855456714416 0.004787328510412176
-0.015213868969460996 -0.01705150754406875 -0.0003198621937168843
-0.008002711903189132 0.047456823337487186 -0.006778535115802629
-0.0038034429679229577 0.034362931453641055 0.0013291105684926604
0.025743545845439465 -0.034640594023467274 0.003751128500835517
0.02496052657194419 -0.0445667752917111 -0.006282978836896315
0.011593440720395722 0.017753431701253923 0.003414903020148763
0.010580875911075347 0.010495125909184232 -0.002759255410824058
0.004852034725826165 0.012548500620682846 0.000995106206233756
-0.004269450366085154 -0.016706255404401776 0.0015607532169215085
0.0031147314211568676 0.010562371283545738 0.00135094713369072
0.0026574418676735506 0.020330430920499416 -0.004588045494825306
0.0016523861740356017 0.013435442319459591 -0.0034161176200755523
0.00568732369699766 0.034322857261268706 0.004178185441156606
-0.013638527094934502 -0.017976295166981945 -0.00424969642239865
-0.016125364919547927 -0.030712806882182343 0.0036863098844918864
0.008092044561521999 0.016884137879902825 3.8087416773988256e-05
-0.00041073752092754713 0.052978849432328896 -0.010589909135041632
-0.011449827660576724 -0.047482228676111786 0.010138489322159628
-0.00015609183462226891 -0.019593868438311325 -0.00032562298767186716
0.01228152439618133 -0.009480315586650733 0.004403663206596201
0.0034394861856367896 0.014962022288100823 -0.00016282449214008766
0.005267118094903032 -0.013144699051280576 0.0013182462844520723
-0.0007944828782369347 -0.003002622247641835 0.004561022304789664
-0.00025890597626542096 -0.019703767696114205 0.0004975967606503793
-0.010456995223510936 -0.020755037348896797 -0.005052964153665601
0.004625583385713462 0.018360408009088176 -0.0039483881873325
0.013644556576191895 0.015410760497263554 0.0003579482677603736
-0.013244017861426653 -0.037135800646798556 0.0015424608830327286
0.018465996772611855 0.026096317511292697 -0.003520825525357342
-0.008632848775232129 -0.017308358936877384 -0.002068908403983563
0.010170631027727237 0.02915554104755842 -0.0013480862819787171
-0.0022042463399316544 -0.017542377875135327 0.0017436713068298849
-0.008680700110228212 -0.02950925482326008 0.004733136458424666
-0.005423478316655778 0.014779404344920085 0.0067855328876359824
-0.004259356560871847 0.029116689795083823 0.000298565493591655
-0.000245794964826438 -0.002454297778082431 -0.002421742739348957
-0.003912257575378464 0.0013346492951545295 0.0034874781679546103
-0.00045315853701179766 0.0010007820418124137 0.004037722887368327
0.012844190375027757 0.001534155168055509 0.006289760934983842
-0.005025626216278887 -0.0064464784781937574 0.012694529989833727
-0.0024859445029009487 0.005600419549262506 0.005513943363684424
-0.00846387224721689 -0.011494770415922591 0.0011083359351870524
-0.0068623826194363045 0.0003055748918191167 -0.0034337568752740083
-0.0010043092215501564 0.016109695445812963 -0.02586411878669983
0.0061841846166336215 -0.009843272550688013 -0.003055810013574876
0.005372109328521471 0.002731089237871501 9.401659637449016e-05
-0.00052326417644989 0.003988967660862995 -0.0009203225135183034
-0.0034076851583351563 0.0064803593878833155 -0.0010786796055586136
0.006327197475568839 -0.016370572171964363 0.0027300691087480144
0.003207898480212346 -0.027107999883986274 0.0036669673088872328
-0.002764105793623135 -0.007500391709554201 -0.003197579522861958
0.0131318887949602 0.04334290695536034 0.007499095007196676
0.006004294404309382 0.03214949483096082 0.0020421287551498756
0.014938388329811494 -0.02318358983550929 -0.002736841352834158
-0.008268599974977543 0.010288138292094644 0.0012837458746348983
0.003704393020672607 -0.037285650893928234 0.0007809827450904645
0.019233163819661923 -0.02782399944500206 0.0008812388190864116
-0.009399408712843055 -0.01799087492461998 -0.0011725671140977948
-0.01226864327189349 -0.02883862523004939 -0.005619575770294891
0.007194521594241343 -0.003935717578166029 -0.0018476866586368181
0.01141154240502025 -0.008586632711963058 0.001242328654976943
-0.00300418736937169 -0.012015766647417289 -0.0009598073640729413
0.0020348842602191846 0.027686325012955974 8.363042269126286e-05
0.002743607897667795 0.03632293995470342 -0.00036320333255996235
-0.004700149887330368 -0.0428751957574402 0.003892655236364105
0.021358606223099246 0.029182715682002567 -0.0026356855266869658
0.008429315378770466 -0.0004617448639653874 0.001285741101494381
-0.004651749693038485 -0.020175884563427685 0.0011271618480425197
0.027823199424751907 -0.03190871630145326 -0.01175545546142006
-0.013042276926153569 -0.013386822227189 0.007981500367332755
0.022268798682194536 1.3983189513147139e-05 -0.020535191639661703
-0.0124289007406322 -0.04039885177713629 -0.002230121103083729
0.0024946174680158884 -0.06011399946918157 -0.006404033994308193
0.02458890432282516 -0.017024585959269912 -0.00273340221116429
0.04062626357964098 0.031908627481631736 -0.013737422802507476
-0.0004772169594341185 0.0076954784748764025 0.0011161207637912268
-0.007127065926614731 -0.004158082347457749 -0.0002796567214573373
-0.0006297335935928763 0.004280021151817986 -1.449193017502434e-05
-0.015748190685393695 0.02068336134372125 0.002405574221623632
0.0023217395142730245 0.083086559964185 -0.019493768350345386
0.0225992719840401 0.0243665485706494 -0.011410384040678057
-0.007799295837107106 0.04630945758468147 -0.006600133568229784
-0.012936583237765432 -0.005577964349587986 0.0007735900526428514
-0.00403694307449238 0.01663885718833949 -0.0021238404472909986
-0.0029404314572524385 0.038679875987413126 0.0033985692805462834
-0.016574282206311314 0.037934679192369945 -0.005651349523217045
0.00709084585573864 0.018928835479693408 0.00675507485552127
0.001851905193492027 0.013498366807890507 -0.0005728860363888922
-0.00231632900412488 -0.009451517592687912 -0.0003502488631742565
0.0063891852686501225 -0.01612969985532125 -0.004134139684313217
-0.004054368633281073 -0.03392361489949115 0.000588710926445138
-0.0002151810869094495 0.008068607505055503 -6.87370084508882e-05
0.007614893873707936 0.02986111810904147 -0.005831115315814997
-0.003951319695180603 -0.035094423388366484 0.0016214014489601889
0.020224504214862184 -0.0322605154660523 0.005961563017938346
0.0015815515953856358 -0.0063527496311026055 -0.0022842488398567445
0.0017078211289429034 -0.003911344837165594 0.000556661299272
8.000926769256935e-05 -0.004559804555307649 0.000992652351062661
0.0001249983660601725 -0.017195476079007246 -0.001254789697619248
-0.0012795436679649 -0.013244222512774944 -4.184163396416021e-05
0.019644575337189003 0.04912507296164027 -0.007193412821589843
-0.0014452626212417073 -0.03267302817952793 0.0029697413141578787
0.0016674535276985116 0.0322014863403546 -0.00490945357512283
0.012159476582412296 -0.03007976562054363 0.010989508426790183
-0.02293142802166468 -0.03197682083361023 -0.008352556526635623
-0.013748434135793314 0.044721546237655764 0.009347914547103762
-0.008811478849899532 -0.021597380550549054 -0.008937172641138223
-0.007906575146530022 0.028656437970219797 -0.007855957938556141
-0.0015676054796126787 -0.01872795196479422 -0.00011146841531582711
-0.018045750867432202 -0.03454264786246949 -0.005401799705086883
0.005270263688689516 -0.009846156950814476 -0.002102806704393658
-0.004570302737964308 0.016882370622598602 -0.00311639631418859
0.005060974806609493 0.021622712126797124 -0.008611752549256835
-0.013880173051621324 -0.03109383811826199 -0.010050721830295387
-0.0079732262458754 -0.00806060628772643 -0.002604122218118098
0.007201262900758806 0.007646244905341414 -0.0025897146666694526
0.005284662410899512 -0.025470700056547297 0.0005712521659664715
0.009533617730274651 0.022470092960871036 0.0015842074309265666
0.012360766997389574 -0.025972393822607784 0.002569782634584293
0.01372172138533718 0.03033600476006505 0.006004468341028627
-0.015806039044857594 -0.014559351782265537 0.002067170096721872
0.01658990453613265 0.04356292314891643 0.006271406595966824
-0.014883046460788146 0.01787328571742708 -0.0016316032594075145
-0.02384554060571103 0.024662245538618642 -0.005223192740946375
-0.0022748131067574346 -0.007063917960977893 0.0009774700401814346
-0.004664418980147584 -0.008944114886498409 0.001359714066546909
0.024373015903424177 0.03675730091137922 0.00177447779785599
0.004004730193704783 0.006574368352030166 0.023829464009895367
0.01407953890958077 -0.012789391258021138 0.01018366844772815
0.024463022790548405 -0.0021626246591571604 0.003921737894336003
0.005348510607927868 0.05280893869154679 -0.0002258924033740976
0.014501724109117556 0.02368747046425854 -0.0027151544056720133
0.015874078249264064 0.039074945687074494 -0.005501112714078594
-0.0110584162323859 -0.018554363128486007 0.0014378821483638222
-0.00192991177749802 -0.010646519067622304 0.0013840990737902224
0.024212524765913002 0.0009160499474426124 0.02528670583576722
0.013997369810767104 -0.009039855171341682 0.01765363148188422
0.008966141709240644 -0.04811021270250488 0.00994511463195038
-0.008692741888730452 0.009826403342505821 0.001056662159231963
-0.006649096808786067 -0.004159665142395475 -0.0016046243383465106
-0.009920035604663481 0.01826762074711639 0.0012092946594484534
0.005984924649957882 -0.003460780167069105 0.000808838014815532
-0.0037137168527142696 0.004904821723092973 0.0004833592361107863
-0.0063037459382518524 -0.0005028978225506603 -0.0002875245750835559
0.0038679178095396434 -0.0029116954859465557 0.0009467531529144195
0.005757064343815695 0.014825557034593685 0.005187641298120808
-0.007225986464830508 -0.011928157048158512 -0.005752271112100366
-0.006269758895892777 -0.008343204772521805 -0.00015945380912407223
-0.007187210443210256 -0.0071867975865617904 -0.0007580486549692417
0.11267816447571986 -0.34026405952473554 -0.009001627531423138
-0.015907646068210737 -0.02898161713778263 -0.004048168207053841
0.005905814414756278 -0.016456966412645033 0.002952404381843899
0.0033606766726608115 0.012898644065021937 -0.0031860838851015716
0.010994292037847178 -0.014776337289044893 -0.0008151708347673022
-0.004912907548572092 0.029587963907954658 0.0054061150508616426
0.00879028038380885 -0.0025492805506454447 0.002598425625917738
0.0026774665107858614 -0.011681827266476277 0.0013210412296523694
0.00292019832449126 0.007617369956907895 -0.00023520584517112072
-0.0027400002808290382 0.07028606882271751 0.004934893459860973
-0.0007870064161387256 -0.03687650653742716 -0.005608033880964555
-0.017142763987057427 0.046428475569675456 -0.010151858107556545
-0.0019530227269979562 0.021489625645078125 0.005602424648494459
0.004938507893720868 -0.027122151756806996 -0.0011103131215376494
-0.0029109243407599746 0.005732220837493935 0.0002029338346603099
-0.0045274989081502195 0.006428345789598046 0.0013474413137605586
-0.0060185509389263795 0.002118670516572921 0.00015253321455043856
-0.0004323343948859942 -0.013342339185951915 -0.0022755005578584484
-0.031085415993004385 0.0010009857551702864 0.00029604105428673416
-0.0057933730767824754 -0.005002971166761581 -0.0047058054711577105
-0.007275516403408804 0.006894390921348102 -0.0031891622032269524
-0.00890310134164426 -0.008116071579217387 -0.0005859497381930191
0.001073894892896409 0.000769667162890488 0.0033689384821905927
-0.0779761714485137 -0.07944912967945669 0.0006812424080282874
-0.04829744797081107 0.017914909759767287 -0.005983381205783936
-0.016435967908565313 0.03717516336129745 0.0077670992413250185
0.014803492548343343 0.006304383915068604 -0.006340276265699999
-0.014022593045722674 -0.016472029989111344 0.001015241452795813
-0.00834175931026719 0.02854490392524064 -0.003645932509054333
0.0039020957457657217 0.009752548809268057 -0.0009978848899874595
0.09197652964078207 0.2386120197188532 0.07520668457091564
0.12769153048925275 0.4094030618381565 -0.05043502324233149
0.0936756750590797 -0.23018787784152464 0.017834211233666967
0.023399959298036108 -0.01999809142420141 0.0010662944695981908
0.023628204528802783 -0.015333657891252739 0.00597603582388348
0.0019186382636388825 -0.001565911492822395 0.0031515786596322567
-0.006062647283057259 -0.02300441573246946 -0.00910339733201988
0.001848671028569172 -0.0015975632959024013 -0.0007814329116640005
0.004442378027265716 -0.002632502010828602 0.003047973374120511
0.010759178195463364 -0.020485260305595852 0.007124553804236754
-0.008449550528105922 0.006858787490756604 -0.0002340810246853888
0.002695330647288138 -0.0004892214824491826 0.0003693290273500898
0.00010358633535902899 -0.015032201023524233 -0.0016469375080829702
-0.007918087831681696 -0.009951554130437933 0.0005367602684083063
-0.0023259352786362732 -0.007893125910539518 0.0006231278061721603
-0.0084861644138825 -0.0067355599802473715 -0.0020254546964546885
-0.004994270541357092 0.017563049577887742 0.002690491153249899
-0.0032089308410439285 -0.03161165778152352 0.004639455563988326
0.00030612083494888575 -0.0015866977327466565 -0.0008179793359262523
-0.005490689224019289 -0.018391864328218367 0.00416600505094366
0.0016878543421193488 0.014744311139467297 0.002270265361228624
0.012969682688699805 -0.014841039169703495 -3.0022190788479143e-05
0.006978526117045429 0.0012336945029209794 -0.0019067206121211183
0.0024948739959964068 -0.006250971207206975 -0.0002718902712920582
-0.009791340639775353 0.008209335251212584 -0.0014756338285120284