# vtk DataFile Version 2.0
Really cool data
ASCII
DATASET UNSTRUCTURED_GRID
POINTS 584 double
-1.0 0.0 0.0
-0.9600374798207896 -0.027590413451835553 0.04
-0.9589620457797374 -0.028177574718636023 0.0
-0.9553815213922792 0.019675326217199102 0.04
0.6719637381218919 0.02110482676547816 0.0
0.6414775595248179 0.020020515529780993 0.04
0.6571281419012174 0.06 0.0
0.6240641012293764 0.022292119262118645 0.0
0.687851041884645 0.021313940245698455 0.04
0.7030120427199962 0.06 0.04
0.657128141901218 0.06 0.04
0.7030120427199952 0.06 0.0
0.6885310613992013 -0.0196061899732657 0.0
0.6720046167250797 -0.020579604775701428 0.04
0.6407079554435648 -0.019738458112036637 0.0
0.7171469290115033 0.021165332718839136 0.0
-0.7921016077200962 -0.06 0.04
-0.7604373514312079 -0.019298436119384588 0.0
-0.7479973317145423 -0.06 0.04
-0.7479973317145417 -0.06 0.0
0.7030120427199962 -0.06 0.0
0.7030120427199952 -0.06 0.04
0.6571281419012174 -0.06 0.04
0.7479973317145417 -0.06 0.04
0.7325903506195701 -0.020274227246539274 0.0
0.7176321617908783 -0.019839353713154383 0.04
0.7604373514312079 -0.019298436119384588 0.04
-0.8488906624897727 0.019856366527450334 0.04000000000000001
-0.8052789150181434 -0.019306901564895652 0.0
-0.805541091654972 0.020469431563422978 0.04000000000000001
-0.8203038938742353 -0.020636147377884773 0.04
0.897529295217204 0.022569895749215793 0.0
0.8488906624897727 0.019856366527450334 0.0
0.8569454102823642 0.029774901726562965 0.04
0.8777357995360431 0.06 0.0
0.9553815213922792 0.019675326217199102 0.0
0.95349853104827 0.02147987272312249 0.04
0.9103536180674616 -0.021283841161765512 0.0
-0.5450807564691462 -0.01715484187473429 0.04000000000000001
-0.5372746904547943 0.02439300391790418 0.04
-0.49049502097572617 0.000359712426279548 0.04000000000000001
-0.5409244119327052 -0.005150142234760652 0.0
-0.48901428549955095 -0.02776609156780287 0.019771763033692314
-0.4642419910175897 -0.06 0.04
-0.43891524330526177 8.673617379884035e-17 0.04000000000000001
0.7479973317145423 -0.06 0.0
0.9600486361512215 0.06 0.04
1.0 0.06 0.04
1.0 0.06 0.0
0.9192992165657531 0.06 0.0
0.7479973317145423 0.06 0.04
0.7309057796957548 0.02177174945441851 0.039999999999999994
0.7479973317145417 0.06 0.0
0.7613659684934695 0.020945326906433456 0.0
0.7736855084518748 0.020914979208800512 0.04
-0.8570647961856006 -0.015388027432140593 0.0
-0.8569454102823642 0.029774901726562965 0.0
-0.8649535140731797 -0.02016838668923704 0.039999999999999994
-0.1726925416005594 -1.214306433183765e-16 0.039999999999999994
-0.22806385632140147 1.0755285551056204e-16 0.039999999999999994
-0.2006519843784229 0.06 0.0
-0.22806385632140147 -1.1796119636642288e-16 0.0
0.438611990705585 -5.252150912499892e-05 0.04
0.41358849559293387 -0.06 0.04
0.4135884955929341 -0.06 0.0
0.4642419910175897 -0.06 0.0
0.4782715374234063 0.0302584611690398 0.019894876072988572
0.513903464641242 0.06 0.0
0.49049502097572617 0.000359712426279548 0.0
0.46424199101758934 0.06 0.0
0.46424199101758934 -0.06 0.04
-0.8164681441220105 0.022269284396602723 0.0
0.48912437490067595 -0.00041996788971368666 0.04
0.4642419910175897 0.06 0.04
-0.8353421249080566 0.06 0.04
0.8649535140731797 -0.02016838668923704 0.0
0.8973163514988121 0.02144006532192878 0.04
0.5625923446839085 0.06 0.04
0.6103276788742331 0.06 0.0
0.5943416245309461 0.018901239582525348 0.04
0.5790918012159274 0.021628695864523574 0.0
-0.593631917725493 -0.01946781888421301 0.04
-0.6103276788742336 -0.06 0.04
-0.6407079554435648 -0.019738458112036637 0.039999999999999994
-0.6264545933043166 -0.021459100211208025 0.0
-0.6103276788742331 -0.06 0.0
-0.6103276788742336 0.06 0.0
-0.6240641012293764 0.022292119262118645 0.04
-0.6414775595248179 0.020020515529780993 0.0
-0.5943416245309461 0.018901239582525348 0.0
-0.5790918012159274 0.021628695864523574 0.04000000000000001
-0.5625923446839077 0.06 0.04
-0.6103276788742331 0.06 0.04
-0.5625923446839085 0.06 0.0
-0.7325903506195701 -0.020274227246539274 0.039999999999999994
-0.7176321617908783 -0.019839353713154383 0.0
-0.7309057796957548 0.02177174945441851 0.0
-0.7736855084518748 0.020914979208800512 0.0
-0.7613659684934695 0.020945326906433456 0.04
-0.6571281419012174 0.06 0.04
-0.6719637381218919 0.02110482676547816 0.039999999999999994
-0.7030120427199952 0.06 0.04
-0.687851041884645 0.021313940245698455 0.0
-0.029521960903255984 -0.06 0.04
-0.05860957814939871 -6.938893903907228e-17 0.039999999999999994
-0.05860957814939863 5.898059818321144e-17 0.0
-0.08769719539554167 -0.06 0.0
-0.08769719539554144 -0.06 0.04
-0.2823507532564078 -5.204170427930421e-17 0.04
-0.25547572826437986 0.06 0.04
-0.25547572826438003 0.06 0.0
0.38751191920162714 6.938893903907228e-18 0.0
0.3352618020299945 -3.469446951953614e-18 0.0
0.36192316205531716 0.06 0.04
0.3619231620553172 0.06 0.0
-0.36192316205531716 0.06 0.0
-0.335244821032008 -1.1796296425746478e-06 0.0
-0.3352618020299945 -3.469446951953614e-18 0.039999999999999994
-0.38745316199969926 -7.894682722445895e-06 0.0
-0.3619231620553172 0.06 0.04
-0.3092257782484355 0.06 0.04
0.28235075325640757 5.551115123125783e-17 0.039999999999999994
0.30922577824843556 -0.06 0.0
0.335244821032008 -1.1796296425746478e-06 0.04
0.3092257782484355 -0.06 0.04
0.36192316205531716 -0.06 0.0
0.38745316199969926 -7.894682722445895e-06 0.04
0.3092257782484355 0.06 0.0
-0.38751191920162714 6.938893903907228e-18 0.04
-0.28235075325640757 5.551115123125783e-17 0.0
-0.30922577824843556 0.06 0.0
0.6103276788742336 -0.06 0.0
0.593631917725493 -0.01946781888421301 0.0
0.6264545933043166 -0.021459100211208025 0.04
0.4889627886584896 -0.027603176797077415 0.020155725176282127
0.583287522480325 -0.023728770665855194 0.039999999999999994
0.5450807564691462 -0.01715484187473429 0.0
0.5409244119327052 -0.005150142234760652 0.04
-0.48912437490067595 -0.00041996788971368666 0.0
0.3619231620553172 -0.06 0.04
-0.657128141901218 0.06 0.0
0.9600374798207896 -0.027590413451835553 0.0
1.0 0.0 0.04
0.9589620457797374 -0.028177574718636023 0.04
0.5625923446839077 -0.06 0.04
0.5625923446839085 -0.06 0.0
0.7766984080639845 -0.02052537972713625 0.0
-0.438611990705585 -5.252150912499892e-05 0.0
-0.583287522480325 -0.023728770665855194 0.0
-0.9600486361512215 0.06 0.0
-0.95349853104827 0.02147987272312249 0.0
-0.9192992165657539 0.06 0.0
-0.9192992165657531 0.06 0.04
-1.0 0.06 0.0
-0.14473309882269625 -0.06 0.04
-0.14473309882269605 -0.06 0.0
-0.11621514710911887 -1.214306433183765e-16 0.0
-0.17269254160055947 1.1796119636642288e-16 0.0
-0.14473309882269625 0.06 0.0
-0.11621514710911884 1.214306433183765e-16 0.039999999999999994
-0.8353421249080566 -0.06 0.0
-0.8353421249080575 -0.06 0.04
-0.8973163514988121 0.02144006532192878 0.0
-0.897529295217204 0.022569895749215793 0.04
0.11621514710911887 -1.214306433183765e-16 0.039999999999999994
0.05860957814939871 -6.938893903907228e-17 0.0
0.05860957814939863 5.898059818321144e-17 0.039999999999999994
0.08769719539554144 0.06 0.04
0.6103276788742336 0.06 0.04
0.5139034646412424 -0.06 0.0
0.9096368506350345 -0.020963842829632554 0.04
0.805541091654972 0.020469431563422978 0.0
0.8052789150181434 -0.019306901564895652 0.04
0.8203038938742353 -0.020636147377884773 0.0
0.08769719539554144 -0.06 0.0
0.08769719539554167 -0.06 0.04
0.9192992165657531 -0.06 0.04
0.8164681441220105 0.022269284396602723 0.039999999999999994
-0.9103536180674616 -0.021283841161765512 0.04000000000000001
-0.8777357995360431 -0.06 0.0
-0.9096368506350345 -0.020963842829632554 0.0
0.8570647961856006 -0.015388027432140593 0.04
0.7921016077200956 -0.06 0.04
0.8353421249080566 -0.06 0.04
0.7921016077200962 -0.06 0.0
0.4135884955929341 0.06 0.04
0.43891524330526177 8.673617379884035e-17 0.0
-0.7921016077200956 -0.06 0.0
-0.08769719539554144 0.06 0.0
0.14473309882269605 0.06 0.0
0.1726925416005594 -1.214306433183765e-16 0.0
0.11621514710911884 1.214306433183765e-16 0.0
-0.029521960903255984 0.06 0.0
0.0 0.0 0.0
0.17269254160055947 1.1796119636642288e-16 0.04
0.14473309882269625 0.06 0.04
0.0 0.0 0.04
0.2006519843784229 0.06 0.04
0.22806385632140147 -1.1796119636642288e-16 0.04
0.22806385632140147 1.0755285551056204e-16 0.0
-0.6720046167250797 -0.020579604775701428 0.0
-0.7030120427199962 -0.06 0.04
-0.7030120427199952 -0.06 0.0
0.25547572826438003 0.06 0.04
0.30922577824843556 0.06 0.04
0.25547572826437986 0.06 0.0
-0.02952196090325599 0.06 0.04
0.2006519843784232 -0.06 0.04
0.14473309882269605 -0.06 0.04
0.2006519843784229 -0.06 0.0
0.14473309882269625 -0.06 0.0
0.2823507532564078 -5.204170427930421e-17 0.0
-0.36192316205531716 -0.06 0.04
-0.41358849559293387 -0.06 0.0
0.5372746904547943 0.02439300391790418 0.0
0.5139034646412424 0.06 0.04
-0.5139034646412424 -0.06 0.04
0.41358849559293387 0.06 0.0
-0.7171469290115033 0.021165332718839136 0.04
-0.7479973317145417 0.06 0.04
-0.7030120427199962 0.06 0.0
0.08769719539554167 0.06 0.0
0.029521960903255984 -0.06 0.0
-0.02952196090325599 -0.06 0.0
0.02952196090325599 -0.06 0.04
0.02952196090325599 0.06 0.0
0.029521960903255984 0.06 0.04
-0.47805793986482265 0.03008719549728311 0.01940109733029794
-0.4642419910175897 0.06 0.0
0.6103276788742331 -0.06 0.04
1.0 -0.06 0.04
0.9600486361512205 -0.06 0.04
0.9600486361512215 -0.06 0.0
-0.3092257782484355 -0.06 0.0
0.877735799536044 -0.06 0.0
0.8777357995360431 -0.06 0.04
-0.41358849559293387 0.06 0.04
-0.4135884955929341 0.06 0.0
1.0 -0.06 0.0
1.0 0.0 0.0
-0.14473309882269605 0.06 0.04
-1.0 -0.06 0.0
-0.9600486361512215 -0.06 0.04
-1.0 -0.06 0.04
-0.7921016077200962 0.06 0.0
-0.9192992165657531 -0.06 0.0
-0.9600486361512205 -0.06 0.0
-0.7921016077200956 0.06 0.04
-0.7766984080639845 -0.02052537972713625 0.04
-0.5625923446839085 -0.06 0.04
-0.5625923446839077 -0.06 0.0
-0.877735799536044 -0.06 0.04
0.7921016077200962 0.06 0.04
-0.3619231620553172 -0.06 0.0
-0.7479973317145423 0.06 0.0
-0.8777357995360431 0.06 0.04
-0.4135884955929341 -0.06 0.04
-0.46424199101758934 -0.06 0.0
0.513903464641242 -0.06 0.04
-1.0 0.0 0.04
-0.877735799536044 0.06 0.0
-0.30922577824843556 -0.06 0.04
[...]
POINT_DATA 584
VECTORS displacement double
-0.016540590550446238 0.01531924067798179 0.023026226972031244
-0.025209152037610046 0.00355627122463254 0.0002615288424427506
-0.02766360548164709 -0.003479337517102033 0.020807949602872817
-0.007842910809360774 0.02687338270605121 -0.0006480587860961233
0.01962777471509188 -0.001589072368375457 0.010132010212121522
0.014272937739737823 -0.008263106916198892 0.024949219431250787
0.028372310708496766 -0.010778338401466706 0.014795112005986148
0.01809086321203118 0.016374967813071933 0.027438457198829702
0.017898455076499547 0.002789807951350324 0.0063441549783598075
0.02764293294791897 -0.0089496736084324 -0.018744781878831895
0.020374447211171466 -0.007181409870279499 0.012181724542584645
0.03255303956913883 -0.02113241572269284 -0.01618013556480966
0.02140028476156236 0.01040118274322871 0.003873761839609968
0.018485493227369604 0.0028041781594115673 0.010666999048515109
0.012892868281002641 0.021881707873443876 0.011215091226953312
0.02495050434588449 -0.014917923964556584 -0.007686319772578696
-0.01683047751537984 0.022385561337019074 -0.01018747815584205
-0.01619557703585528 0.03115401252317368 0.005406478876402033
-0.004111446620005033 0.008677433104921613 -0.006453043039336444
-0.017659257415438907 0.03289691720800643 -0.010550402800230316
0.014538588869805164 0.0205394842729311 -0.007077905733964354
0.017120575127139857 0.020134273039131956 -0.011046489719400409
0.0036078332728577745 0.027883927496735888 -0.0015961907718852067
0.020520667114341647 -0.01688529744525252 0.009235026445016179
0.024261273956022376 -0.02506258937842106 -0.0007687134960925024
0.021655510362514962 -0.00311475462946721 0.0028276432977807115
0.011099543662930261 -0.03631644278551278 0.009050034533249663
0.005388790089493062 -0.00499132484525181 -0.009191453921610795
-0.02454563209791253 0.018950604777311312 0.006660352183573103
0.009802704761812723 0.00857011005854581 0.009489173719661284
-0.014571018030757736 0.00636924867238133 -0.0010386678866532429
-0.01771398757441249 0.0276239748885463 -0.004639634096490362
-0.0150985316088007 -0.02918276790431521 -0.0003197430903839888
-0.024984280186475902 -0.06633328212678138 -0.001200416821985479
-0.0986759226640705 0.0054663215029857794 0.013858842996982246
-0.010998547336456596 -0.013891741644455476 -0.020845104638618793
-0.01919726522264487 -0.016344386361435946 -0.016969662175190116
0.01467445763208265 0.023207462616424274 -0.014080746579143153
0.0035656482115774568 0.012834468907604347 -0.017352840830179187
0.00633193709308809 0.004212288480348116 -0.007842035133664077
0.007154920094524697 -0.002032178560555152 0.008546904492628885
0.012439206019317325 0.013970460012506517 -0.020138171235020156
0.022052059347038466 0.011143269084471875 -0.0004726362122662356
0.03541797091991833 0.001810899903221553 0.0007650786317935905
0.005559342553137284 0.009132678604402464 0.024987142446993404
0.023368725285169437 -0.030994601965466655 0.010136965156813336
-0.09933398363129177 -0.02419280082815116 -0.01251639924277866
-0.09032754104277749 0.03430702396504016 -0.02524128844335004
-0.09580386192282868 0.039206246502353624 -0.023585081698272184
-0.0925515629439329 0.014778121294733 -0.004749677018253978
0.04026598723317088 -0.010278256785340164 -0.0308827991951116
0.01746728870622901 0.0028693216969140002 -0.007584123780327759
0.047630159894258624 -0.04642927658314009 -0.028330128585212003
0.025791029155516107 -0.06404063693635369 -0.00043005068670283697
0.015445203764410047 -0.06138957261622149 -0.007888949920894093
-0.021667417732845837 -0.02659905735149567 -0.00034753980759834715
-0.005914427960240526 -0.02613775632564498 -0.014722823482923055
-0.011832125547377767 -0.012925515044411914 -0.003752284672741006
-0.02368979545963027 -0.007409580596233489 -0.003307006403498154
-0.01837421563516609 0.014425360254215177 -0.018489187929076188
-0.009584693808855644 0.0035669158221647715 -0.012148818085664663
-0.022373286353859313 0.023613037296876964 -0.02748962639961699
-0.011298207822557279 -0.007046086426414347 -0.0247279666734508
-0.020860913707781894 0.006158325368098892 -0.04730787385203925
-0.014198923064640233 0.022757379500640086 -0.045779220521656463
-0.009866659460704322 0.008076857517925213 -0.02557865883194856
0.03373897135020913 -0.0182594556983178 -0.021814704561363186
0.0742592668761728 -0.02783624002059041 -0.028080154554692753
0.0011276330252199618 -0.022294443489518697 -0.01501625775930169
0.06992318219034835 -0.02210201214141825 -0.028320209193243392
-0.01669452880844229 0.010631988149000158 -0.014873891135383205
0.00037019221132427983 0.01626457938035178 0.006576161613080445
-0.005537557440737177 -0.00836243227555928 -0.01011051239580711
0.07142324279514572 -0.021887509179818285 -0.02617370371201764
-0.024778410827844034 -0.006860548850891004 -0.004811304133852548
0.0258930398339493 -0.02240423453958963 -0.007620662275189605
-0.016539239531085378 0.021925332200825546 -0.004493250400711008
0.06946649813918229 -0.020877903221027692 0.0015748204217022293
0.04919724019362681 0.023258649164045346 0.014413699285840593
0.025642905110607805 0.004121437279103842 0.03337186294855019
0.016612812934593532 -0.007462639121645865 0.017447312479316145
0.004110787725883278 -0.005323127449816191 -0.01508056690909351
-0.0034066576162860474 0.004738327852875129 -0.01522552336555935
0.0032910752427830693 0.03308499475831376 -0.0014821255121818542
-0.0010793365139948193 0.012883642843290162 -0.02001003215343657
-0.004837057042350293 0.012380586267076913 -0.027297489288519286
-0.0034737048682280196 -0.04831800746402287 -0.052159892856432834
0.00896800233642883 -0.009369674585407075 -0.01347198401481999
0.0004968951221436981 -0.010743990441968013 -0.02590153519094757
0.007883751432831123 -0.02890929586640445 -0.03559893073413103
0.0057921404268964395 -0.013305228447364835 -0.019206715977460338
-0.0025325860671048636 -0.01773228479659771 -0.028278327255812585
0.001760311720288458 -0.030285561123292597 -0.0362155803474673
-0.0006973966365771847 -0.028973875389647775 -0.03782969979482887
-0.011358840096553222 0.02045978353439724 0.013065051337941459
-0.015419364065178317 0.02377423118403296 0.010737089963803471
-0.005967008529449904 0.003443940211236016 0.014096082140925484
-0.01562749503751559 0.034562610516635804 0.01904301456433394
-0.009234447740463878 0.015251060355300638 0.02866473419166647
0.004625499707866405 -0.003923586853997293 -0.013225754463309973
0.01335176391847433 -0.014601796493086792 0.007358476813003817
0.005575782580253484 -0.052225990054679566 0.003339686768587177
0.004061378679559158 -0.024347760509285152 0.002827012092414739
0.01296657296721148 0.021332578708283294 0.011082884565016079
-0.028308743825004538 -0.024983686531875725 0.023689641403561907
-0.02914989427215078 -0.02362447635288011 0.006761043664648785
0.0016703752679541651 0.024347650247676284 -0.005233797823423711
0.006933136866064336 0.026216175354916556 0.01389789807082926
-0.007608538111082833 -0.0035656069481088465 -0.015953027974705106
-0.011109584879996083 0.012581868895036015 -0.01711408619410724
-0.01085066451354933 0.015672940785019157 -0.02089811524237511
-0.0034895637682159195 0.041717287029224524 -0.023062025803072997
-0.00550650135124608 0.0071193935704157345 -0.0032077176409507136
0.05003047155360065 -0.0007093877494852187 0.009155988762000593
0.05693643282554543 0.011518211559013026 0.0015803722514012247
-0.002455407988491364 -0.005992139519560984 0.008538940021297571
-0.008045106899547353 -0.01905159230788379 0.009844391955427634
-0.0028548903378560445 -0.005583088318606836 0.007244496552284627
0.0025144807002862386 -0.014569940730038675 0.030538532471627394
-0.0007269376794878244 0.007288519151573329 0.0034261378376389913
-0.0032947855838265146 -0.003082287537908337 -0.01740740155029741
-0.013685310808311067 0.00959784309026106 0.03217558684893495
-0.005557006580764133 0.02766358985674259 0.0001602151980924849
-0.006405188483715019 -0.0004972156981391172 0.013109195403424458
-0.008711841663601599 0.010083948079968545 0.003243194171756158
-0.00407009969563108 0.035951295772492904 -0.036205841001642244
-0.009178928336913268 0.02531930471974539 -0.017557147724453197
0.05110763755071952 -0.036164520881371266 0.006148469309156817
0.004412557491461505 -0.0044598348797611825 0.02832752716692722
-0.016025706296328768 -0.0046437889032662355 -0.016128028108561735
-0.005334449837987521 -0.010045412740700881 -0.010873847183847755
-0.015652260069821892 0.060162329680667405 0.005610501391363338
0.006196737494734203 0.04881013441721056 0.01806708645150988
0.012985453122853902 0.0035249212225879965 0.02447339838532449
-0.007439570121283317 -0.009400433812393992 -0.00974173840921149
-0.0008500795996112214 0.051628970789613024 0.03005514469715844
-0.000679559525442061 -0.031052665466020854 0.011767209066629649
-0.007956906605026891 -0.030869387657967505 0.01603175530297842
0.012046959294974976 0.01035523514998903 0.0034716151836968936
-0.007798226535287857 0.00959464900372427 -0.031217300661272953
-0.009757146126524145 -0.015918121573084174 -0.024682881676111434
0.012976462856994395 -0.009557890687482239 -0.018861579767265012
-0.004769103807009998 -0.0011027338133891072 -0.023579592908473754
0.009581532756167181 -0.003870534015600665 -0.01211052799686803
0.005669977717872345 0.008021810537263994 0.021616194005127383
0.0058649496624542784 0.011409226685466616 0.016127941196221608
0.029952978523815937 -0.03012946896731932 0.0010496474270388452
0.009897308910607855 0.011090179882397504 0.027892201516916435
0.006184948409888721 -0.0036585978897468873 -0.029479058714790726
-0.04059337292341511 0.034671011068751374 -0.005719806970309844
-0.02146186890220113 0.011733802360122426 0.00023780442832597895
-0.04132593456787858 -0.04025594293827867 -0.030440292175550342
-0.03906453164684759 -0.0352107514160571 -0.03192653173665513
-0.031157641571405024 0.016302229776420374 0.024333427691568897
0.011696026149623836 0.01941676408745776 -0.003957051198873301
0.00524318281294938 0.02229624540526793 -0.021541553167913886
-0.03366177953711471 -0.002967065888036208 -0.003618951298784082
-0.0297241189211705 0.002062291897652419 -0.015189156881483905
-0.01852929311935312 -0.010981787588378401 -0.0027799670525438082
-0.03180279341439481 -0.010469509411138047 0.01698753378626149
-0.03694438604458039 -0.015207901769771064 0.005769561540930494
-0.02826479317649524 -0.010701582633339389 0.0011270269091843827
-0.009012583603101783 -0.03640564791161119 -0.014301309437841258
0.011348746559528876 -0.010670489675072645 -0.022803043687724414
-0.027018073991945803 0.00644537252293585 -0.00046992924585445876
-0.027379261284774605 0.014344066638402413 -0.0021978930466947898
-0.021682311296169057 0.008122479053778135 0.0028329855343971135
0.001138800206600872 -0.0005000382213351492 -0.0035209962779229357
0.04017623303324295 0.046437562508639535 0.030675844523521997
-0.01079359175282226 -0.02103152073050028 0.010728624212083442
0.007804755803735946 0.026632327105798458 -0.0041431741273378914
0.008168419025948625 0.014988498831961418 0.005658911906690256
0.03396089425006191 0.021961459447235997 0.013785367594674702
0.03458285473757999 0.0031776798122859404 0.0035364441375122847
-0.005362599840586441 0.01151140794230361 -0.015200607891636466
0.004463962182775918 0.0033912854627443077 -0.013853526807541771
0.016153956103085915 0.020402980665523946 -0.00618643574097928
0.0029016877025560142 0.01631818098352805 0.0020737019306918186
-0.02217803475141293 -0.007725085665118999 -0.00254265273224737
-0.04545372423766743 -0.034973426811563894 0.02112825447518532
-0.029237705847676373 -0.031508867535850596 0.006686246829178418
0.01828834984900588 -0.028652219957944893 0.008632717462422236
0.037011296196982825 0.045218433842212885 0.013235120933749482
0.022674679436299867 -0.013719283578031937 0.011562232162429673
0.04220391202796163 0.009801739200847648 0.022338325295772322
0.06328327980084467 0.007035783905936507 -0.015678048414426052
-0.002280212687514966 -0.0013657418681399657 -0.029076765057704287
-0.03069393336983983 0.029287323930537096 -0.0008557291000817567
-0.01958929944037619 -0.0412394299782224 -0.000757636807441022
0.012694895541575591 -0.012055620072127324 -0.012033744860610453
-0.03151444204023557 0.0013839558667194682 -0.0019013291565631253
-0.03036264498925477 0.007177796049582175 -0.006042533155847102
-0.013406184929440124 -0.05702692046633357 -0.0028275566427563978
-0.020237110971646478 -0.008171792655152317 0.006730928180645229
-0.03247389776933017 0.004099967082767879 0.009070664004623483
0.0055599248546978905 -0.007449769416622592 -0.005600002809071386
-0.014414959324128456 -0.007049729118459081 0.016937773231741747
0.02008676675839868 -0.016392999390702188 -0.015741851253413746
-0.015990177578297782 -0.030288982862923374 0.02941862979271473
-0.01239590725782122 -0.0389037954758846 0.016708197321844122
-0.011497852423432611 0.009892509008995751 0.00037257138734102664
-0.0038390499777372906 0.00234154405231741 0.003082756588715678
-0.01701409244821366 0.020194007602106833 -0.004168424297592595
0.01647754479691394 -0.03104106912987122 -0.0026107807291196887
0.046320460165033536 -0.0325708531160712 0.01825975446245886
0.03214943485985965 -0.04973665316109823 -0.0020421502748528583
-0.013205479571737387 -0.03393455840656833 -0.010520231371335892
-0.005326327666492427 0.07048270921895404 0.012371239237888229
-0.008956521763323797 -0.007592375730014207 -0.008255616960073464
-0.017494560681139606 0.05350589989420935 0.0064123542120787975
-0.018256016497280526 0.004591699069654217 -0.00801360808295046
-0.01088124919967286 0.0036834506115526982 0.016786859133279604
0.041552749571607935 -0.015697199872122324 0.03493942002525937
0.04047303319556693 -0.007320159869098117 0.03992406757516718
0.015380258659573235 -0.041724729628154635 0.005783116733795404
0.07388094190459897 0.009851916995091116 -0.03017012016024569
0.023924806553085383 0.021330217507812138 -0.023311243893958184
0.0683138422121479 0.020923549841330373 -0.01584681085288648
0.002931179932689386 -0.0001783636710134662 0.028146534852943373
-0.03023501736904223 -0.03739207841078603 0.03309474431557408
-0.012420014610237071 -0.04788566978904375 0.0032065637864530775
0.005425818012933383 0.0003962035289958176 -0.007060188959472162
0.009890360370664028 0.012587582503043277 -0.006489115538623367
0.013224641121923482 0.022546062070252323 -0.002528143397539313
0.014618238503185508 0.011782468172501982 -0.0014038727383571406
-0.0022297308838797364 0.003942145820864204 -0.004034225684058425
-0.0020058215720931524 0.007599851050790309 -0.0006550599030020906
0.005271812059013001 0.0032744845747747415 0.0129051635516889
0.005830682514340366 0.0022624225097690642 0.016455226702613724
-0.02078255879224474 0.02940295709588134 -0.004046117936633492
0.015332812375272361 0.0058630938390772085 -0.011060843817202392
0.015565632269517484 -0.0018463826591612151 -0.005993885534569106
0.023550725021220915 -0.006982390462521213 -0.013943996998599354
0.027906737163115064 -0.021444915621625607 0.002561614946308664
0.0324263657219595 -0.012445400028047053 0.0030725353595967898
0.026368763446262426 0.003715888030408831 0.003177918661796005
0.0035242669155432674 0.0015199917484178824 0.026193885840636696
0.005724710461355511 -0.0012811700446936289 0.022627395145943866
0.026998471729599693 -0.0012561296312431818 -0.010398735326335696
0.0006587660971420922 0.0017720215896480879 -0.02116690788020162
-0.02019134178595606 0.0007041423391755488 -0.0026639619599908232
-0.03807793706344396 -0.005973880244356894 0.028366751515748984
-0.0462268282133837 -0.023622608071033658 0.0072737450108317945
-0.04175786566644239 -0.0010927175156826507 0.0024458479139998677
-0.04358492176468192 0.05365259762477271 0.029347541628702515
-0.05249622094949324 -0.033229539243521344 0.02947093642651581
-0.045462145606375286 -0.02348080863325216 0.02889897367266454
-0.03995556022574237 0.04109035494030662 0.03456501139690527
-0.004469251724162416 -0.00041514450261523567 0.007415126078794925
0.00964301965812933 0.014461012722393602 -0.026256544955807364
0.017511900054435484 0.018953298461131564 -0.03145074110246659
-0.04274002241549662 -0.011995217636788624 0.009930024980276883
0.0059690336705491035 0.037766220860166726 -0.002934907999673988
0.03466929120963588 -0.025107595215807934 0.0342878578703553
-0.03752260469808616 -0.013846739516814002 0.02959018670673997
-0.029559078988772917 -0.004440916309807904 -0.041389685595796755
0.03471160033554735 -0.003752785060183457 0.02731996990617521
0.03570927519471683 0.012822128003982209 0.004553773654164411
-0.01155019069104433 -0.0039180726897139855 0.011769220391173148
-0.010765817864351296 0.009819894078861306 0.01015707388301172
-0.037177321392423975 -0.02924422360355685 -0.03792332469717019
0.03665796027318031 -0.014402974524171516 0.003984550428353456
0.031522312684440404 0.003282750919451592 -0.02723035677979597
-0.021705476239884364 -0.013415874694053507 -0.010268314677668844
0.0070841316603771805 0.0039040397918404025 0.01740109248555502
0.024735337925993615 0.006441687568116503 -0.02898541931711421
-0.023961420715281373 0.056837651644316686 -0.0063010126778042345
-0.05396552339751871 -0.0151423663864618 0.012016753834088375
0.004911621879171049 -0.00991965116054984 -0.01053708426667809
-0.006904991996668414 0.005001592617164518 0.013640405991250012
-0.0981717988550438 -0.013252508040294047 -0.01393035842610525
0.0038895754452131434 -0.009726435582362743 0.04647613316512858
0.009221359702059407 -0.015128729615431238 0.0027075429352062864
0.0046493830318630296 0.007909096097669276 0.015233964121845137
-0.0037970797513825374 0.029676532418738077 -0.007808325822519817
-0.11083079641416414 0.022364963310801313 0.004905535370629002
-0.10174758881388415 0.008002764932987742 -0.005753703058401324
0.016834806153932905 0.0038389653035551703 0.03769000012950111
0.02820383228629523 -0.022773363792771825 0.012855548776512482
0.024358395674074163 0.03188110873649751 -0.020281568820297427
-0.010451674243476485 -0.00347148506388342 -0.003912917561888598
-0.040196692570814915 -0.007011459639778393 -0.003831546385594748
-0.013494634280141466 0.060221614199700346 0.03287982915183061
-0.008116382630858709 0.08612542343391673 0.0005954412217722394
0.012040619134348585 0.02706216588283228 0.00790203301996244
0.022483115191264533 0.018275030493728136 -0.008824117462389458
0.0550376807549342 -0.03792247812093119 -0.004799756833402991
0.006146281688521703 0.018626273115833574 -0.001194260456368532
0.004454981653751686 0.0379119256662572 -0.004919494427402095
0.015125358425045525 0.00918475328633663 -0.027848498513156985
0.006837830935910335 0.02015627645642412 -0.03894708267104439
0.025638452246706644 -0.03822863382593669 -0.012561863671260986
-0.04691102255697475 0.00792568785164912 -0.009247278784219399
-0.02402101571106677 0.00997566054719573 -0.009688219309505596
-0.051853067208428194 0.0048584147714783674 -0.007716195867058748
-0.004474687840669441 -0.00039800436148785195 -0.009174898817820203
-0.01686580042745657 -0.0015393278299277865 -0.006467484034780057
0.0350863638010794 -0.012489443013710579 0.0044230799699838145
0.025503302915325536 0.019032122632005898 -0.020797640068120293
0.04223387060991305 -0.006546198678063073 -0.03242057120081035
0.03980522977833535 -0.005322421240244225 -0.020608892411213036
-0.009574923583953723 -0.0020350085075358025 -0.01740661921199059
0.0003059876677980937 0.0021029096420601048 -0.004184411546089726
0.012230340437059246 -0.009063512070015543 0.0023482684651392706
0.011967902204534512 0.0025790011921063803 0.009795572634984262
-0.030906986434481917 0.009357488910747192 -0.0011685976212388142
0.02582341944025084 0.01497865282307867 -0.005137602828736096
-0.013856966084498032 -0.040671449737772605 0.0012260361739521893
-0.037788373837110034 -0.0008427374086740291 -0.011429636135672524
-0.0029072038389926524 0.008760316133461607 -0.022824291044127434
0.04452950927922797 -0.014954597905376756 0.010654581925294442