# vtk DataFile Version 2.0
Really cool data
ASCII
DATASET UNSTRUCTURED_GRID
POINTS 584 double
-1.0 0.0 0.0
-0.9600374798207896 -0.027590413451835553 0.04
-0.9589620457797374 -0.028177574718636023 0.0
-0.9553815213922792 0.019675326217199102 0.04
0.6719637381218919 0.02110482676547816 0.0
0.6414775595248179 0.020020515529780993 0.04
0.6571281419012174 0.06 0.0
0.6240641012293764 0.022292119262118645 0.0
0.687851041884645 0.021313940245698455 0.04
0.7030120427199962 0.06 0.04
0.657128141901218 0.06 0.04
0.7030120427199952 0.06 0.0
0.6885310613992013 -0.0196061899732657 0.0
0.6720046167250797 -0.020579604775701428 0.04
0.6407079554435648 -0.019738458112036637 0.0
0.7171469290115033 0.021165332718839136 0.0
-0.7921016077200962 -0.06 0.04
-0.7604373514312079 -0.019298436119384588 0.0
-0.7479973317145423 -0.06 0.04
-0.7479973317145417 -0.06 0.0
0.7030120427199962 -0.06 0.0
0.7030120427199952 -0.06 0.04
0.6571281419012174 -0.06 0.04
0.7479973317145417 -0.06 0.04
0.7325903506195701 -0.020274227246539274 0.0
0.7176321617908783 -0.019839353713154383 0.04
0.7604373514312079 -0.019298436119384588 0.04
-0.8488906624897727 0.019856366527450334 0.04000000000000001
-0.8052789150181434 -0.019306901564895652 0.0
-0.805541091654972 0.020469431563422978 0.04000000000000001
-0.8203038938742353 -0.020636147377884773 0.04
0.897529295217204 0.022569895749215793 0.0
0.8488906624897727 0.019856366527450334 0.0
0.8569454102823642 0.029774901726562965 0.04
0.8777357995360431 0.06 0.0
0.9553815213922792 0.019675326217199102 0.0
0.95349853104827 0.02147987272312249 0.04
0.9103536180674616 -0.021283841161765512 0.0
-0.5450807564691462 -0.01715484187473429 0.04000000000000001
-0.5372746904547943 0.02439300391790418 0.04
-0.49049502097572617 0.000359712426279548 0.04000000000000001
-0.5409244119327052 -0.005150142234760652 0.0
-0.48901428549955095 -0.02776609156780287 0.019771763033692314
-0.4642419910175897 -0.06 0.04
-0.43891524330526177 8.673617379884035e-17 0.04000000000000001
0.7479973317145423 -0.06 0.0
0.9600486361512215 0.06 0.04
1.0 0.06 0.04
1.0 0.06 0.0
0.9192992165657531 0.06 0.0
0.7479973317145423 0.06 0.04
0.7309057796957548 0.02177174945441851 0.039999999999999994
0.7479973317145417 0.06 0.0
0.7613659684934695 0.020945326906433456 0.0
0.7736855084518748 0.020914979208800512 0.04
-0.8570647961856006 -0.015388027432140593 0.0
-0.8569454102823642 0.029774901726562965 0.0
-0.8649535140731797 -0.02016838668923704 0.039999999999999994
-0.1726925416005594 -1.214306433183765e-16 0.039999999999999994
-0.22806385632140147 1.0755285551056204e-16 0.039999999999999994
-0.2006519843784229 0.06 0.0
-0.22806385632140147 -1.1796119636642288e-16 0.0
0.438611990705585 -5.252150912499892e-05 0.04
0.41358849559293387 -0.06 0.04
0.4135884955929341 -0.06 0.0
0.4642419910175897 -0.06 0.0
0.4782715374234063 0.0302584611690398 0.019894876072988572
0.513903464641242 0.06 0.0
0.49049502097572617 0.000359712426279548 0.0
0.46424199101758934 0.06 0.0
0.46424199101758934 -0.06 0.04
-0.8164681441220105 0.022269284396602723 0.0
0.48912437490067595 -0.00041996788971368666 0.04
0.4642419910175897 0.06 0.04
-0.8353421249080566 0.06 0.04
0.8649535140731797 -0.02016838668923704 0.0
0.8973163514988121 0.02144006532192878 0.04
0.5625923446839085 0.06 0.04
0.6103276788742331 0.06 0.0
0.5943416245309461 0.018901239582525348 0.04
0.5790918012159274 0.021628695864523574 0.0
-0.593631917725493 -0.01946781888421301 0.04
-0.6103276788742336 -0.06 0.04
-0.6407079554435648 -0.019738458112036637 0.039999999999999994
-0.6264545933043166 -0.021459100211208025 0.0
-0.6103276788742331 -0.06 0.0
-0.6103276788742336 0.06 0.0
-0.6240641012293764 0.022292119262118645 0.04
-0.6414775595248179 0.020020515529780993 0.0
-0.5943416245309461 0.018901239582525348 0.0
-0.5790918012159274 0.021628695864523574 0.04000000000000001
-0.5625923446839077 0.06 0.04
-0.6103276788742331 0.06 0.04
-0.5625923446839085 0.06 0.0
-0.7325903506195701 -0.020274227246539274 0.039999999999999994
-0.7176321617908783 -0.019839353713154383 0.0
-0.7309057796957548 0.02177174945441851 0.0
-0.7736855084518748 0.020914979208800512 0.0
-0.7613659684934695 0.020945326906433456 0.04
-0.6571281419012174 0.06 0.04
-0.6719637381218919 0.02110482676547816 0.039999999999999994
-0.7030120427199952 0.06 0.04
-0.687851041884645 0.021313940245698455 0.0
-0.029521960903255984 -0.06 0.04
-0.05860957814939871 -6.938893903907228e-17 0.039999999999999994
-0.05860957814939863 5.898059818321144e-17 0.0
-0.08769719539554167 -0.06 0.0
-0.08769719539554144 -0.06 0.04
-0.2823507532564078 -5.204170427930421e-17 0.04
-0.25547572826437986 0.06 0.04
-0.25547572826438003 0.06 0.0
0.38751191920162714 6.938893903907228e-18 0.0
0.3352618020299945 -3.469446951953614e-18 0.0
0.36192316205531716 0.06 0.04
0.3619231620553172 0.06 0.0
-0.36192316205531716 0.06 0.0
-0.335244821032008 -1.1796296425746478e-06 0.0
-0.3352618020299945 -3.469446951953614e-18 0.039999999999999994
-0.38745316199969926 -7.894682722445895e-06 0.0
-0.3619231620553172 0.06 0.04
-0.3092257782484355 0.06 0.04
0.28235075325640757 5.551115123125783e-17 0.039999999999999994
0.30922577824843556 -0.06 0.0
0.335244821032008 -1.1796296425746478e-06 0.04
0.3092257782484355 -0.06 0.04
0.36192316205531716 -0.06 0.0
0.38745316199969926 -7.894682722445895e-06 0.04
0.3092257782484355 0.06 0.0
-0.38751191920162714 6.938893903907228e-18 0.04
-0.28235075325640757 5.551115123125783e-17 0.0
-0.30922577824843556 0.06 0.0
0.6103276788742336 -0.06 0.0
0.593631917725493 -0.01946781888421301 0.0
0.6264545933043166 -0.021459100211208025 0.04
0.4889627886584896 -0.027603176797077415 0.020155725176282127
0.583287522480325 -0.023728770665855194 0.039999999999999994
0.5450807564691462 -0.01715484187473429 0.0
0.5409244119327052 -0.005150142234760652 0.04
-0.48912437490067595 -0.00041996788971368666 0.0
0.3619231620553172 -0.06 0.04
-0.657128141901218 0.06 0.0
0.9600374798207896 -0.027590413451835553 0.0
1.0 0.0 0.04
0.9589620457797374 -0.028177574718636023 0.04
0.5625923446839077 -0.06 0.04
0.5625923446839085 -0.06 0.0
0.7766984080639845 -0.02052537972713625 0.0
-0.438611990705585 -5.252150912499892e-05 0.0
-0.583287522480325 -0.023728770665855194 0.0
-0.9600486361512215 0.06 0.0
-0.95349853104827 0.02147987272312249 0.0
-0.9192992165657539 0.06 0.0
-0.9192992165657531 0.06 0.04
-1.0 0.06 0.0
-0.14473309882269625 -0.06 0.04
-0.14473309882269605 -0.06 0.0
-0.11621514710911887 -1.214306433183765e-16 0.0
-0.17269254160055947 1.1796119636642288e-16 0.0
-0.14473309882269625 0.06 0.0
-0.11621514710911884 1.214306433183765e-16 0.039999999999999994
-0.8353421249080566 -0.06 0.0
-0.8353421249080575 -0.06 0.04
-0.8973163514988121 0.02144006532192878 0.0
-0.897529295217204 0.022569895749215793 0.04
0.11621514710911887 -1.214306433183765e-16 0.039999999999999994
0.05860957814939871 -6.938893903907228e-17 0.0
0.05860957814939863 5.898059818321144e-17 0.039999999999999994
0.08769719539554144 0.06 0.04
0.6103276788742336 0.06 0.04
0.5139034646412424 -0.06 0.0
0.9096368506350345 -0.020963842829632554 0.04
0.805541091654972 0.020469431563422978 0.0
0.8052789150181434 -0.019306901564895652 0.04
0.8203038938742353 -0.020636147377884773 0.0
0.08769719539554144 -0.06 0.0
0.08769719539554167 -0.06 0.04
0.9192992165657531 -0.06 0.04
0.8164681441220105 0.022269284396602723 0.039999999999999994
-0.9103536180674616 -0.021283841161765512 0.04000000000000001
-0.8777357995360431 -0.06 0.0
-0.9096368506350345 -0.020963842829632554 0.0
0.8570647961856006 -0.015388027432140593 0.04
0.7921016077200956 -0.06 0.04
0.8353421249080566 -0.06 0.04
0.7921016077200962 -0.06 0.0
0.4135884955929341 0.06 0.04
0.43891524330526177 8.673617379884035e-17 0.0
-0.7921016077200956 -0.06 0.0
-0.08769719539554144 0.06 0.0
0.14473309882269605 0.06 0.0
0.1726925416005594 -1.214306433183765e-16 0.0
0.11621514710911884 1.214306433183765e-16 0.0
-0.029521960903255984 0.06 0.0
0.0 0.0 0.0
0.17269254160055947 1.1796119636642288e-16 0.04
0.14473309882269625 0.06 0.04
0.0 0.0 0.04
0.2006519843784229 0.06 0.04
0.22806385632140147 -1.1796119636642288e-16 0.04
0.22806385632140147 1.0755285551056204e-16 0.0
-0.6720046167250797 -0.020579604775701428 0.0
-0.7030120427199962 -0.06 0.04
-0.7030120427199952 -0.06 0.0
0.25547572826438003 0.06 0.04
0.30922577824843556 0.06 0.04
0.25547572826437986 0.06 0.0
-0.02952196090325599 0.06 0.04
0.2006519843784232 -0.06 0.04
0.14473309882269605 -0.06 0.04
0.2006519843784229 -0.06 0.0
0.14473309882269625 -0.06 0.0
0.2823507532564078 -5.204170427930421e-17 0.0
-0.36192316205531716 -0.06 0.04
-0.41358849559293387 -0.06 0.0
0.5372746904547943 0.02439300391790418 0.0
0.5139034646412424 0.06 0.04
-0.5139034646412424 -0.06 0.04
0.41358849559293387 0.06 0.0
-0.7171469290115033 0.021165332718839136 0.04
-0.7479973317145417 0.06 0.04
-0.7030120427199962 0.06 0.0
0.08769719539554167 0.06 0.0
0.029521960903255984 -0.06 0.0
-0.02952196090325599 -0.06 0.0
0.02952196090325599 -0.06 0.04
0.02952196090325599 0.06 0.0
0.029521960903255984 0.06 0.04
-0.47805793986482265 0.03008719549728311 0.01940109733029794
-0.4642419910175897 0.06 0.0
0.6103276788742331 -0.06 0.04
1.0 -0.06 0.04
0.9600486361512205 -0.06 0.04
0.9600486361512215 -0.06 0.0
-0.3092257782484355 -0.06 0.0
0.877735799536044 -0.06 0.0
0.8777357995360431 -0.06 0.04
-0.41358849559293387 0.06 0.04
-0.4135884955929341 0.06 0.0
1.0 -0.06 0.0
1.0 0.0 0.0
-0.14473309882269605 0.06 0.04
-1.0 -0.06 0.0
-0.9600486361512215 -0.06 0.04
-1.0 -0.06 0.04
-0.7921016077200962 0.06 0.0
-0.9192992165657531 -0.06 0.0
-0.9600486361512205 -0.06 0.0
-0.7921016077200956 0.06 0.04
-0.7766984080639845 -0.02052537972713625 0.04
-0.5625923446839085 -0.06 0.04
-0.5625923446839077 -0.06 0.0
-0.877735799536044 -0.06 0.04
0.7921016077200962 0.06 0.04
-0.3619231620553172 -0.06 0.0
-0.7479973317145423 0.06 0.0
-0.8777357995360431 0.06 0.04
-0.4135884955929341 -0.06 0.04
-0.46424199101758934 -0.06 0.0
0.513903464641242 -0.06 0.04
-1.0 0.0 0.04
-0.877735799536044 0.06 0.0
-0.30922577824843556 -0.06 0.04
[...]
POINT_DATA 584
VECTORS displacement double
0.009422647156495286 0.03149816010316858 0.04466802143205746
0.01060152887928211 0.01726242970715082 0.03367100213078553
0.009322895284329762 0.03135288100075595 0.03342979079765101
0.01076885506218944 0.017245947076025243 0.05017680123166325
0.009497360683167685 0.025579215171283955 -0.0012543972393292576
0.01077007707224486 0.011592881313657256 -0.0006635292345088441
0.00963505409316011 0.025631734897077704 0.012924029720110464
0.009501563835870868 0.025748785423654785 0.000692615939233695
0.010774655945273468 0.011428713824775694 -0.0016877401703393287
0.010911609069372082 0.011375042129023598 0.011459696672154076
0.010911609069370814 0.011537476442652532 0.01292402972011033
0.009635054093161045 0.025469300583449338 0.011459696672154492
0.009353238977235811 0.025520564931500813 -0.01612791451009107
0.01062634795250771 0.011484812001874506 -0.015943480625617974
0.009352770732733344 0.02568986425550943 -0.014648299446281286
0.009497574881237505 0.02541926145181601 -0.002675048254993234
0.0104867951959811 0.01666791730453582 0.016891790570238943
0.009354328461504902 0.0306500806309494 0.030222720492754557
0.010486795195980534 0.016511783068490767 0.015484252245089494
0.009210240219792762 0.030606041522935865 0.015484252245089725
0.009210240219739574 0.025469300583451503 -0.030823078691122306
0.010486795195949432 0.011375042129025207 -0.03082307869112233
0.010486795195948381 0.011537476442650827 -0.02935874564316931
0.010486795195948365 0.01121578900514666 -0.03225873355417642
0.009350874048055183 0.02536458995387947 -0.017769404382322825
0.010628968526850137 0.011323285217254848 -0.017138800123350343
0.01063088343766878 0.011171749897133189 -0.01831428376019639
0.0107694959658203 0.01686895712390311 0.04684205605848725
0.009354298492848315 0.0308088249502652 0.03165080566675366
0.010771666286924988 0.01671549463142808 0.045674620726028105
0.010626147785181561 0.016767756658035957 0.03166194260395589
0.00950254719674692 0.024780687021083797 -0.00793684157586715
0.009492940989586224 0.02495287340414689 -0.007340723914139397
0.01080460872710261 0.010830100211312789 -0.004102922158919217
0.009635054093157316 0.02485075828416155 0.005883584641505138
0.009492300085958949 0.02457588345201955 -0.010803050533545955
0.010775243365426967 0.010488291001114659 -0.010107113395014014
0.009347299898070706 0.02473528743554929 -0.023798262960030056
0.010638472009136733 0.015793434932553557 0.02410516645154142
0.010785556186666285 0.01576580055638981 0.03849569656183301
0.010700475556250423 0.015600195118146877 0.0285344905205315
0.009404415057554641 0.029872979446814437 0.02820245487886542
0.009955345544460762 0.022722503140391447 0.01857692574622833
0.010486795195963157 0.015507256356932692 0.006428519940406366
0.010699202132674295 0.015417596741955536 0.02676163297649548
0.009210240219739103 0.025310047459570925 -0.03225873355417686
0.01091160906936707 0.010465102871781491 0.0032566631118247473
0.010911609069366677 0.010323670424903555 0.001981660303635739
0.009635054093157026 0.024417928879322124 0.0019816603036369937
0.009635054093157491 0.02470361898264646 0.0045571349705635315
0.01091160906937323 0.011215789005145485 0.010024041809095548
0.010776276642801038 0.011276295075280404 -0.002900471632632137
0.009635054093161888 0.025310047459569614 0.010024041809096508
0.009496796035226114 0.025262720939797364 -0.00416376959688014
0.010773243577078661 0.011124849889634646 -0.004567627055192263
0.009368171760346215 0.030992152956658407 0.03468433439620391
0.00952805375093792 0.03099173031675676 0.05059397423254456
0.010627803712097072 0.0169258214755658 0.03325170347621657
0.010699202132668555 0.014475137599415228 0.018265435110559797
0.010699202132671136 0.014671158455095838 0.020032548294196643
0.009635054093185245 0.028668375713730578 0.04029911693746653
0.009422647156473684 0.02876541690953714 0.020032548294197247
0.010699016200448235 0.012311048880958459 -0.0012621672498455013
0.010486795195949201 0.012399634946673283 -0.02158645195818652
0.009210240219739263 0.02649389340110465 -0.02158645195818695
0.009210240219738377 0.02631457417114913 -0.02320300124935726
0.010164688183529832 0.01925481982259902 0.008152413554075456
0.009635054093164496 0.026138766813060512 0.017494884081926832
0.009423920580027275 0.026221635409931474 -0.0027727024709218906
0.009635054093165287 0.026314574171149407 0.019079774113935934
0.010486795195948426 0.012220315716717401 -0.023203001249356824
0.009501482997849912 0.03084843611489936 0.04665753508134344
0.010697715397779039 0.012132229201069811 -0.0030036852413641174
0.010911609069376821 0.012220315716718416 0.0190797741139358
0.010911609069399312 0.016820993734491172 0.06055453836830187
0.009351248735862705 0.024896009052484628 -0.0219563321524227
0.010775102442624319 0.010687182412046364 -0.008328148768079002
0.010911609069375253 0.011872144094262158 0.015941033279310002
0.009635054093162069 0.025797413946888288 0.014417613819264857
0.010766114705991198 0.01175974797300834 0.00044637696280026
0.00949921524034582 0.025907992565033913 0.0018940947528190441
0.010630283803116494 0.015965311656498195 0.024839629719814495
0.01048679519596946 0.01602441658119258 0.011090680235005267
0.010629325708959716 0.016131966272570377 0.026246646994400054
0.00934667946081233 0.03017576617718066 0.025185487623911193
0.009210240219777488 0.030118675035633605 0.011090680235004265
0.00963505409320277 0.030118675035632893 0.05337345559832957
0.01077811881209782 0.016073045104423138 0.04052522263391801
0.009493522096071095 0.030228949214438982 0.04028053930217062
0.009489559729815621 0.030062082555079597 0.03838186488076216
0.01077577021657151 0.015913837963040925 0.03885622077883422
0.010911609069392116 0.015855427979383583 0.051850036138309734
0.010911609069394078 0.016024416581187348 0.05337345559833143
0.00963505409320083 0.029949686433825902 0.051850036138308755
0.010627429024288208 0.016457240574192553 0.028990188497711854
0.009352413550683976 0.030498545310839027 0.028666045237476435
0.009499721666632325 0.030545535452810926 0.04375159887764426
0.00949668860091096 0.030696980638447956 0.04481497723628782
0.010773351011457075 0.016559109588268683 0.044432506192681354
0.01091160906939855 0.016190095631011456 0.05486703969745831
0.010773915659397802 0.016242615356801497 0.04163553544702177
0.010911609069400455 0.01635252994461507 0.056331372745388984
0.00949810096910568 0.030393116703321354 0.04221624334984909
0.010486795195954869 0.01396829719153915 -0.007445080501959487
0.010699202132666112 0.014071270719454534 0.014624605743232322
0.009422647156465576 0.028165529173892784 0.014624605743230708
0.0092102402197561 0.02826850270180877 -0.005588483374894049
0.010486795195956456 0.014174244247367991 -0.005588483374893959
0.010699202132671 0.014863340346449596 0.021765053504813205
0.010911609069384369 0.014768199650906819 0.04204875501425225
0.009635054093187318 0.02886245810534874 0.04204875501425212
0.009422647156452694 0.026586207496291956 0.00038714030733311014
0.00942264715645361 0.026771178951824487 0.002054643984409664
0.010911609069378927 0.012582536200524493 0.022345164370738118
0.009635054093168428 0.026676794654957866 0.02234516437073692
0.009635054093191766 0.029239294327567538 0.04544590504697844
0.009422642980451701 0.029144849916008807 0.02345269249044077
0.010699202132672102 0.015050651576263105 0.023453650070004054
0.009422619208388999 0.029329673478945006 0.025116496834628955
0.010911609069386739 0.015145035873123956 0.045445905046979665
0.010911609069386445 0.014958481042000205 0.04376412735870037
0.010699202132664088 0.01286423172720451 0.003743240549620823
0.009210240219739754 0.026863349486091943 -0.01825583330426507
0.010699197956638075 0.012676980612086833 0.00205477026372047
0.010486795195948678 0.012769091031657898 -0.018255833304264377
0.009210240219738812 0.026676794654957547 -0.019937610992562
0.010699174184573074 0.012492157049147117 0.00038623373482876255
0.009635054093170378 0.026863349486092144 0.02402694205903882
0.010699202132673022 0.015235623031790933 0.025121153747059678
0.009422647156474956 0.02895759880089195 0.021765053504812813
0.009635054093190624 0.029052739496442093 0.04376412735870031
0.009210240219739884 0.02579741394688753 -0.027865161544018746
0.00935372882688825 0.025856518871579158 -0.013050559210428208
0.010623234436986035 0.011646064350915138 -0.014799698798448814
0.009968176001156894 0.01912505969020413 -0.012576707697354656
0.010615199541175142 0.01179888077225261 -0.014221803371583255
0.009361917032910939 0.026028395595521593 -0.010686111153594349
0.010680970033732733 0.011948851081275077 -0.006323532611233885
0.009421160421598511 0.029689601327020265 0.028216022496702232
0.010486795195948254 0.012582536200523773 -0.019937610992562332
0.009635054093207739 0.0302843540854521 0.054867039697457896
0.009324973903049141 0.024559400820898 -0.027606028979435867
0.01069920213265894 0.010323670424899593 -0.019159727377992087
0.010599450260491873 0.010468949527318135 -0.027778597778736598
0.010486795195947873 0.011872144094261093 -0.026341742083976726
0.009210240219738198 0.025966402548690818 -0.026341742083976646
0.009349984939237442 0.025208442331102733 -0.019265558587187835
0.009422461224265662 0.029510781647135515 0.026733448718014953
0.00933864456500114 0.03002294975583486 0.02300812609735675
0.009635054093215334 0.031356727656285714 0.06453440630556116
0.009498688389261796 0.0313335395269564 0.050752551335507885
0.009635054093215106 0.031212469999841213 0.06323393444684669
0.010911609069405396 0.017118211545394217 0.0632339344468508
0.009635054093211444 0.03149816010317821 0.06580940911372582
0.010486795195957454 0.014376157939543468 -0.0037682467163453045
0.009210240219757729 0.028470416393981762 -0.0037682467163462274
0.009422647156471549 0.0283694595478949 0.01646302263603939
0.009422647156470383 0.02856939605385529 0.018265435110558892
0.009635054093185562 0.02847041639397477 0.038514528646973564
0.010699202132670076 0.014275201093455245 0.016463022636039902
0.009210240219795088 0.030915252188937325 0.018271763004968605
0.010486795195982094 0.01682099373449279 0.01827176300496917
0.00949854746645776 0.031134648116023136 0.048945533918565175
0.010779102172980564 0.01704114350696148 0.049350432828946356
0.01069920213266842 0.013452370980224561 0.009045271418434883
0.009422647156462995 0.027750559808680977 0.010883688311247844
0.010699202132665097 0.013656301354244353 0.01088368831124852
0.010911609069382863 0.013553327826308791 0.03109677742936898
0.010911609069372104 0.011703155492462055 0.014417613819264779
0.00921024021973871 0.0261387668130611 -0.02478789128136314
0.010624987705371996 0.01064356642070689 -0.023662634654262174
0.009495111310692608 0.025106335896630295 -0.005741253728334803
0.010630853469011797 0.011013005577812006 -0.019748334643068778
0.009349592808946773 0.025054073870016715 -0.020696208282167287
0.009210240219748927 0.027647586280757454 -0.011185997933944307
0.01048679519595099 0.013553327826321104 -0.011185997933942787
0.010486795195948717 0.01060936052822871 -0.0377256403926951
0.010778037974017309 0.01097339441317611 -0.00545578853311911
0.01062385487430381 0.017086543092491482 0.03430755910229949
0.009210240219796958 0.03106533069833267 0.01962470941259789
0.009348432729209143 0.031178264107359185 0.03439743775643556
0.010644726736509328 0.010829677571416356 -0.020020182128676952
0.010486795195947907 0.011059654769100835 -0.033666271879350354
0.010486795195948322 0.010906578339137964 -0.03504624431410298
0.009210240219738776 0.025153913223523845 -0.033666271879350805
0.010911609069377232 0.012399634946672065 0.020696323405109778
0.009422647156451538 0.026404233786127235 -0.0012533389221249846
0.009210240219794222 0.030762175758978546 0.016891790570239294
0.009635054093183028 0.028268502701819326 0.036694291988424735
0.009635054093173714 0.027445672588585615 0.02927654077081083
0.009422647156458906 0.027346692928707936 0.007242858943905145
0.009422647156464138 0.02754662943466222 0.009045271418433443
0.009635054093182561 0.028062555645962613 0.03483769486135515
0.009422647156468759 0.027958044491279564 0.012754147027240611
0.010699202132664495 0.013252434474272544 0.007242858943905644
0.01091160906937838 0.01335141413414932 0.02927654077081185
0.010699202132670185 0.013863786036840088 0.012754147027241595
0.010911609069379156 0.01315345481438927 0.027491952480309518
0.010699202132665366 0.013056413618570661 0.00547574576025467
0.00942264715645805 0.02715067207300671 0.005475745760254453
0.00934979297633838 0.03033701852621429 0.0269490612499336
0.010486795195976912 0.016352529944623467 0.014048597382060088
0.009210240219788186 0.030446788399066376 0.01404859738205958
0.010911609069378546 0.012959372422749619 0.025742314403507927
0.01091160906937938 0.012769091031657511 0.024026942059039113
0.0096350540931715 0.02705363087718728 0.02574231440350799
0.010911609069383935 0.013968297191524528 0.034837694861355795
0.010486795195951701 0.013153454814392947 -0.014790822882998978
0.010486795195955396 0.013351414134138697 -0.013006234592500165
0.009210240219744663 0.02724771326882849 -0.014790822882998612
0.009210240219750122 0.02744567258857729 -0.013006234592498648
0.00942264715645502 0.02695849018163992 0.003743240549620405
0.0104867951959594 0.015145035873123597 0.0031631296836520284
0.009210240219767414 0.029422195581421035 0.004811970649256599
0.009509001210441518 0.026056029971686986 0.004202662577441615
0.010911609069375404 0.012044508358629958 0.01749488408192697
0.010486795195964571 0.01568306371501505 0.008013409972389857
0.009635054093165828 0.026493893401104404 0.0206963234051095
0.010774129857467958 0.016402569076262963 0.043098825789895746
0.010911609069394507 0.01651178306849597 0.05776702760841996
0.009635054093208532 0.030446788399065013 0.056331372745387936
0.00963505409317848 0.027647586280746966 0.031096777429367704
0.009210240219754421 0.027853533336591598 -0.0093294008068732
0.009210240219753718 0.028062555645975762 -0.0074450805019608745
0.010486795195957771 0.01375927488215349 -0.009329400806873746
0.009635054093177296 0.02785353333660365 0.03295337455643975
0.010911609069379801 0.013759274882166462 0.03295337455644088
0.010148323490493888 0.022814322865756347 0.03861224581606533
0.00963505409319515 0.029601514811373707 0.04871129530373282
0.01048679519594992 0.011703155492460367 -0.02786516154401882
0.010486795195947168 0.01032367042490328 -0.04030111505961839
0.010486795195947966 0.010465102871778544 -0.039026112251430725
0.009210240219738638 0.02455936132619752 -0.03902611225143037
0.009210240219761927 0.02905273949643961 0.001481351995372925
0.009210240219738812 0.024850758284161587 -0.03639919072175617
0.010486795195947678 0.010756499829742383 -0.03639919072175638
0.010911609069387035 0.01532793712698012 0.047094746012584024
0.009635054093192858 0.029422195581422506 0.04709474601258291
0.00921024021973758 0.024417928879320466 -0.04030111505961868
0.009422647156448869 0.024417928879318943 -0.019159727377991223
0.010911609069384515 0.014376157939534904 0.038514528646974626
0.00921024021979684 0.03149816010314705 0.023526633750387698
0.010486795195986021 0.01726246920185607 0.02225163094222694
0.010486795195986214 0.01740390164869158 0.02352663375038792
0.009635054093209408 0.030762175758976 0.0591745659335692
0.009210240219798401 0.03121246999983555 0.020951159083513197
0.009210240219797923 0.03135672765629472 0.022251630942224782
0.01091160906939784 0.016667917304530832 0.05917456593357121
0.010626539915472896 0.016613388196956295 0.03030935230390325
0.01048679519596606 0.015855427979381526 0.009567260774983072
0.009210240219773224 0.029949686433823227 0.00956726077498252
0.010486795195983408 0.016971072243887345 0.019624709412596635
0.010911609069373768 0.011059654769102641 0.00861650348391846
0.009210240219764708 0.029239294327566476 0.0031631296836513003
0.009635054093207493 0.03060604152294156 0.05776702760841939
0.01091160906940248 0.016971072243882765 0.061907484775932095
0.01048679519596185 0.015327937126978889 0.004811970649257065
0.009210240219768791 0.02960151481137412 0.006428519940405904
0.010486795195949057 0.012044508358631488 -0.024787891281362193
0.010699202132679038 0.017403901648727294 0.04466802143205008
0.009635054093214175 0.031065330698329424 0.06190748477593059
0.010486795195957592 0.01495848104199694 0.0014813519953734958
0.010486795195958434 0.014768199650907783 -0.00023402034907361432
0.010911609069381949 0.014174244247381241 0.036694291988424096
0.0092102402197421 0.02705363087718289 -0.016540460959799684
0.009210240219762014 0.02886245810534906 -0.00023402034907418008
0.010911609069401673 0.01726246920182899 0.06453440630556562
0.010486795195987195 0.01711821154538665 0.02095115908351314
0.009635054093198033 0.02977732216946195 0.05029618533571713
0.010629793953468268 0.016301265596572512 0.027819473124840594
0.009635054093157501 0.024559361326199965 0.003256663111825373
0.010911609069393952 0.01740390164873393 0.06580940911372889
0.010911609069389018 0.015683063715019513 0.05029618533571749
0.01091160906938834 0.015507256356930437 0.04871129530373467
0.009210240219783731 0.03028435408543366 0.012584264334131687
0.010911609069366572 0.010756499829743815 0.0058835846415037875
0.010911609069365941 0.010609360528225382 0.004557134970562525
0.010486795195950891 0.012959372422745903 -0.016540460959799844
0.00921024021973906 0.025000836793557996 -0.03504624431410272
0.009210240219771156 0.029777322169457512 0.008013409972390048
0.010911609069382799 0.01457411725928988 0.04029911693746671
0.009635054093211134 0.03091525218893685 0.0605545383683006
0.00963505409316052 0.02500083679356226 0.007236531049163484
0.010911609069371813 0.010906578339143309 0.00723653104916049
0.00963505409316291 0.025153913223525105 0.008616503483919149
0.009210240219739013 0.02470361898264726 -0.03772564039269428
0.009635054093164118 0.02596640254869102 0.015941033279309586
0.010486795195974724 0.016190095630988933 0.012584264334131496
0.0092102402197386 0.025631734897078134 -0.029358745643169173
0.010486795195957833 0.0145741172592824 -0.001983658425857069
0.009210240219760548 0.028668375713724204 -0.0019836584258565515
0.009635054093173483 0.027247713268826537 0.02749195248030851
0.01176335017217186 0.003023953090949224 0.020951159083508687
0.01187808385546833 0.0031681712527096935 0.03367100213078306
0.011763350172165295 0.003168210747419824 0.022251630942225008
0.011902702761372591 0.0026734982035924422 0.03166194260395462
0.011975757108872876 -0.0006418874742144693 0.0090452714184343
0.012048221263113001 0.002621236176982966 0.045674620726028244
0.012046050942008224 0.0027746986694566324 0.046842056058486445
0.011763350172156722 0.0006739411964660442 -0.00023402034907517695
0.011763350172157969 0.0004798588048428649 -0.0019836584258580057
0.011975757108868449 0.000576900000652877 0.020032548294196588
0.012052325192762522 0.001819579508597584 0.03885622077883448
0.011906838779310362 0.0018710532020563859 0.02483962971981303
0.012054673788287375 0.001978786649974939 0.04052522263391911
0.011266252248370173 0.010009079362991084 0.03444415829843695
0.012045410038373292 0.0031516886215630447 0.05017680123166334
0.011975757108858846 0.003309643194277713 0.04466802143206358
0.01176335017217301 0.002876813789439492 0.019624709412595934
0.011904358688289079 0.0028315630211222563 0.03325170347621433
0.011763350172157743 0.0012336786725370497 0.0048119706492567235
0.01197575710886946 0.0013233382875128524 0.026761632976494868
0.0119757571088689 0.0011413645773476707 0.025121153747059952
0.011977030532444161 0.001505936663703887 0.02853449052053137
0.011763350172158652 -0.0015117222539108213 -0.01993761099256158
0.011975752932847845 -0.00141727784234831 0.002054770263720542
0.01197572916078302 -0.0016021014052845796 0.0003862337348285833
0.011763350172160838 -0.0011348860316882448 -0.01654046095979773
0.011975757108873294 -0.0010378448358687078 0.005475745760253794