# vtk DataFile Version 2.0
Really cool data
ASCII
DATASET UNSTRUCTURED_GRID
POINTS 584 double
-1.0 0.0 0.0
-0.9600374798207896 -0.027590413451835553 0.04
-0.9589620457797374 -0.028177574718636023 0.0
-0.9553815213922792 0.019675326217199102 0.04
0.6719637381218919 0.02110482676547816 0.0
0.6414775595248179 0.020020515529780993 0.04
0.6571281419012174 0.06 0.0
0.6240641012293764 0.022292119262118645 0.0
0.687851041884645 0.021313940245698455 0.04
0.7030120427199962 0.06 0.04
0.657128141901218 0.06 0.04
0.7030120427199952 0.06 0.0
0.6885310613992013 -0.0196061899732657 0.0
0.6720046167250797 -0.020579604775701428 0.04
0.6407079554435648 -0.019738458112036637 0.0
0.7171469290115033 0.021165332718839136 0.0
-0.7921016077200962 -0.06 0.04
-0.7604373514312079 -0.019298436119384588 0.0
-0.7479973317145423 -0.06 0.04
-0.7479973317145417 -0.06 0.0
0.7030120427199962 -0.06 0.0
0.7030120427199952 -0.06 0.04
0.6571281419012174 -0.06 0.04
0.7479973317145417 -0.06 0.04
0.7325903506195701 -0.020274227246539274 0.0
0.7176321617908783 -0.019839353713154383 0.04
0.7604373514312079 -0.019298436119384588 0.04
-0.8488906624897727 0.019856366527450334 0.04000000000000001
-0.8052789150181434 -0.019306901564895652 0.0
-0.805541091654972 0.020469431563422978 0.04000000000000001
-0.8203038938742353 -0.020636147377884773 0.04
0.897529295217204 0.022569895749215793 0.0
0.8488906624897727 0.019856366527450334 0.0
0.8569454102823642 0.029774901726562965 0.04
0.8777357995360431 0.06 0.0
0.9553815213922792 0.019675326217199102 0.0
0.95349853104827 0.02147987272312249 0.04
0.9103536180674616 -0.021283841161765512 0.0
-0.5450807564691462 -0.01715484187473429 0.04000000000000001
-0.5372746904547943 0.02439300391790418 0.04
-0.49049502097572617 0.000359712426279548 0.04000000000000001
-0.5409244119327052 -0.005150142234760652 0.0
-0.48901428549955095 -0.02776609156780287 0.019771763033692314
-0.4642419910175897 -0.06 0.04
-0.43891524330526177 8.673617379884035e-17 0.04000000000000001
0.7479973317145423 -0.06 0.0
0.9600486361512215 0.06 0.04
1.0 0.06 0.04
1.0 0.06 0.0
0.9192992165657531 0.06 0.0
0.7479973317145423 0.06 0.04
0.7309057796957548 0.02177174945441851 0.039999999999999994
0.7479973317145417 0.06 0.0
0.7613659684934695 0.020945326906433456 0.0
0.7736855084518748 0.020914979208800512 0.04
-0.8570647961856006 -0.015388027432140593 0.0
-0.8569454102823642 0.029774901726562965 0.0
-0.8649535140731797 -0.02016838668923704 0.039999999999999994
-0.1726925416005594 -1.214306433183765e-16 0.039999999999999994
-0.22806385632140147 1.0755285551056204e-16 0.039999999999999994
-0.2006519843784229 0.06 0.0
-0.22806385632140147 -1.1796119636642288e-16 0.0
0.438611990705585 -5.252150912499892e-05 0.04
0.41358849559293387 -0.06 0.04
0.4135884955929341 -0.06 0.0
0.4642419910175897 -0.06 0.0
0.4782715374234063 0.0302584611690398 0.019894876072988572
0.513903464641242 0.06 0.0
0.49049502097572617 0.000359712426279548 0.0
0.46424199101758934 0.06 0.0
0.46424199101758934 -0.06 0.04
-0.8164681441220105 0.022269284396602723 0.0
0.48912437490067595 -0.00041996788971368666 0.04
0.4642419910175897 0.06 0.04
-0.8353421249080566 0.06 0.04
0.8649535140731797 -0.02016838668923704 0.0
0.8973163514988121 0.02144006532192878 0.04
0.5625923446839085 0.06 0.04
0.6103276788742331 0.06 0.0
0.5943416245309461 0.018901239582525348 0.04
0.5790918012159274 0.021628695864523574 0.0
-0.593631917725493 -0.01946781888421301 0.04
-0.6103276788742336 -0.06 0.04
-0.6407079554435648 -0.019738458112036637 0.039999999999999994
-0.6264545933043166 -0.021459100211208025 0.0
-0.6103276788742331 -0.06 0.0
-0.6103276788742336 0.06 0.0
-0.6240641012293764 0.022292119262118645 0.04
-0.6414775595248179 0.020020515529780993 0.0
-0.5943416245309461 0.018901239582525348 0.0
-0.5790918012159274 0.021628695864523574 0.04000000000000001
-0.5625923446839077 0.06 0.04
-0.6103276788742331 0.06 0.04
-0.5625923446839085 0.06 0.0
-0.7325903506195701 -0.020274227246539274 0.039999999999999994
-0.7176321617908783 -0.019839353713154383 0.0
-0.7309057796957548 0.02177174945441851 0.0
-0.7736855084518748 0.020914979208800512 0.0
-0.7613659684934695 0.020945326906433456 0.04
-0.6571281419012174 0.06 0.04
-0.6719637381218919 0.02110482676547816 0.039999999999999994
-0.7030120427199952 0.06 0.04
-0.687851041884645 0.021313940245698455 0.0
-0.029521960903255984 -0.06 0.04
-0.05860957814939871 -6.938893903907228e-17 0.039999999999999994
-0.05860957814939863 5.898059818321144e-17 0.0
-0.08769719539554167 -0.06 0.0
-0.08769719539554144 -0.06 0.04
-0.2823507532564078 -5.204170427930421e-17 0.04
-0.25547572826437986 0.06 0.04
-0.25547572826438003 0.06 0.0
0.38751191920162714 6.938893903907228e-18 0.0
0.3352618020299945 -3.469446951953614e-18 0.0
0.36192316205531716 0.06 0.04
0.3619231620553172 0.06 0.0
-0.36192316205531716 0.06 0.0
-0.335244821032008 -1.1796296425746478e-06 0.0
-0.3352618020299945 -3.469446951953614e-18 0.039999999999999994
-0.38745316199969926 -7.894682722445895e-06 0.0
-0.3619231620553172 0.06 0.04
-0.3092257782484355 0.06 0.04
0.28235075325640757 5.551115123125783e-17 0.039999999999999994
0.30922577824843556 -0.06 0.0
0.335244821032008 -1.1796296425746478e-06 0.04
0.3092257782484355 -0.06 0.04
0.36192316205531716 -0.06 0.0
0.38745316199969926 -7.894682722445895e-06 0.04
0.3092257782484355 0.06 0.0
-0.38751191920162714 6.938893903907228e-18 0.04
-0.28235075325640757 5.551115123125783e-17 0.0
-0.30922577824843556 0.06 0.0
0.6103276788742336 -0.06 0.0
0.593631917725493 -0.01946781888421301 0.0
0.6264545933043166 -0.021459100211208025 0.04
0.4889627886584896 -0.027603176797077415 0.020155725176282127
0.583287522480325 -0.023728770665855194 0.039999999999999994
0.5450807564691462 -0.01715484187473429 0.0
0.5409244119327052 -0.005150142234760652 0.04
-0.48912437490067595 -0.00041996788971368666 0.0
0.3619231620553172 -0.06 0.04
-0.657128141901218 0.06 0.0
0.9600374798207896 -0.027590413451835553 0.0
1.0 0.0 0.04
0.9589620457797374 -0.028177574718636023 0.04
0.5625923446839077 -0.06 0.04
0.5625923446839085 -0.06 0.0
0.7766984080639845 -0.02052537972713625 0.0
-0.438611990705585 -5.252150912499892e-05 0.0
-0.583287522480325 -0.023728770665855194 0.0
-0.9600486361512215 0.06 0.0
-0.95349853104827 0.02147987272312249 0.0
-0.9192992165657539 0.06 0.0
-0.9192992165657531 0.06 0.04
-1.0 0.06 0.0
-0.14473309882269625 -0.06 0.04
-0.14473309882269605 -0.06 0.0
-0.11621514710911887 -1.214306433183765e-16 0.0
-0.17269254160055947 1.1796119636642288e-16 0.0
-0.14473309882269625 0.06 0.0
-0.11621514710911884 1.214306433183765e-16 0.039999999999999994
-0.8353421249080566 -0.06 0.0
-0.8353421249080575 -0.06 0.04
-0.8973163514988121 0.02144006532192878 0.0
-0.897529295217204 0.022569895749215793 0.04
0.11621514710911887 -1.214306433183765e-16 0.039999999999999994
0.05860957814939871 -6.938893903907228e-17 0.0
0.05860957814939863 5.898059818321144e-17 0.039999999999999994
0.08769719539554144 0.06 0.04
0.6103276788742336 0.06 0.04
0.5139034646412424 -0.06 0.0
0.9096368506350345 -0.020963842829632554 0.04
0.805541091654972 0.020469431563422978 0.0
0.8052789150181434 -0.019306901564895652 0.04
0.8203038938742353 -0.020636147377884773 0.0
0.08769719539554144 -0.06 0.0
0.08769719539554167 -0.06 0.04
0.9192992165657531 -0.06 0.04
0.8164681441220105 0.022269284396602723 0.039999999999999994
-0.9103536180674616 -0.021283841161765512 0.04000000000000001
-0.8777357995360431 -0.06 0.0
-0.9096368506350345 -0.020963842829632554 0.0
0.8570647961856006 -0.015388027432140593 0.04
0.7921016077200956 -0.06 0.04
0.8353421249080566 -0.06 0.04
0.7921016077200962 -0.06 0.0
0.4135884955929341 0.06 0.04
0.43891524330526177 8.673617379884035e-17 0.0
-0.7921016077200956 -0.06 0.0
-0.08769719539554144 0.06 0.0
0.14473309882269605 0.06 0.0
0.1726925416005594 -1.214306433183765e-16 0.0
0.11621514710911884 1.214306433183765e-16 0.0
-0.029521960903255984 0.06 0.0
0.0 0.0 0.0
0.17269254160055947 1.1796119636642288e-16 0.04
0.14473309882269625 0.06 0.04
0.0 0.0 0.04
0.2006519843784229 0.06 0.04
0.22806385632140147 -1.1796119636642288e-16 0.04
0.22806385632140147 1.0755285551056204e-16 0.0
-0.6720046167250797 -0.020579604775701428 0.0
-0.7030120427199962 -0.06 0.04
-0.7030120427199952 -0.06 0.0
0.25547572826438003 0.06 0.04
0.30922577824843556 0.06 0.04
0.25547572826437986 0.06 0.0
-0.02952196090325599 0.06 0.04
0.2006519843784232 -0.06 0.04
0.14473309882269605 -0.06 0.04
0.2006519843784229 -0.06 0.0
0.14473309882269625 -0.06 0.0
0.2823507532564078 -5.204170427930421e-17 0.0
-0.36192316205531716 -0.06 0.04
-0.41358849559293387 -0.06 0.0
0.5372746904547943 0.02439300391790418 0.0
0.5139034646412424 0.06 0.04
-0.5139034646412424 -0.06 0.04
0.41358849559293387 0.06 0.0
-0.7171469290115033 0.021165332718839136 0.04
-0.7479973317145417 0.06 0.04
-0.7030120427199962 0.06 0.0
0.08769719539554167 0.06 0.0
0.029521960903255984 -0.06 0.0
-0.02952196090325599 -0.06 0.0
0.02952196090325599 -0.06 0.04
0.02952196090325599 0.06 0.0
0.029521960903255984 0.06 0.04
-0.47805793986482265 0.03008719549728311 0.01940109733029794
-0.4642419910175897 0.06 0.0
0.6103276788742331 -0.06 0.04
1.0 -0.06 0.04
0.9600486361512205 -0.06 0.04
0.9600486361512215 -0.06 0.0
-0.3092257782484355 -0.06 0.0
0.877735799536044 -0.06 0.0
0.8777357995360431 -0.06 0.04
-0.41358849559293387 0.06 0.04
-0.4135884955929341 0.06 0.0
1.0 -0.06 0.0
1.0 0.0 0.0
-0.14473309882269605 0.06 0.04
-1.0 -0.06 0.0
-0.9600486361512215 -0.06 0.04
-1.0 -0.06 0.04
-0.7921016077200962 0.06 0.0
-0.9192992165657531 -0.06 0.0
-0.9600486361512205 -0.06 0.0
-0.7921016077200956 0.06 0.04
-0.7766984080639845 -0.02052537972713625 0.04
-0.5625923446839085 -0.06 0.04
-0.5625923446839077 -0.06 0.0
-0.877735799536044 -0.06 0.04
0.7921016077200962 0.06 0.04
-0.3619231620553172 -0.06 0.0
-0.7479973317145423 0.06 0.0
-0.8777357995360431 0.06 0.04
-0.4135884955929341 -0.06 0.04
-0.46424199101758934 -0.06 0.0
0.513903464641242 -0.06 0.04
-1.0 0.0 0.04
-0.877735799536044 0.06 0.0
-0.30922577824843556 -0.06 0.04
[...]
POINT_DATA 584
VECTORS displacement double
0.04148835482393871 -0.0030355170628311168 -0.007775982036261394
0.041222897283731574 -0.0023560035494705894 -0.007042071759087998
0.041492847754869285 -0.0030289735367907034 -0.007024935363179978
0.04121536073362543 -0.0023552611541487753 -0.007806073934656255
0.041484989646848755 -0.0027689214576759255 0.003148626218534088
0.04121530569298817 -0.0021006410309060398 0.0029612009883633185
0.04147878778852117 -0.0027712870022459186 0.0023939901894827246
0.04148480033235896 -0.00277655908303858 0.0028054946975257134
0.04121509945565407 -0.0020932467517837936 0.0032522895875551332
0.04120893094059521 -0.002090829321256324 0.0027035423106208287
0.0412089309405945 -0.002098145536312458 0.0023939901894825372
0.04147878778852196 -0.0027639707871899718 0.0027035423106209697
0.041491481042494706 -0.002766279788204633 0.003945503196668278
0.04122177940613246 -0.002095773473625579 0.003850389986664935
0.04149150213272716 -0.002773905210664528 0.0036250942601066924
0.041484979999139526 -0.002761716971230018 0.003452432828699224
0.04122806501144624 -0.002329226075475598 -0.0053636997166411635
0.04149143197097344 -0.0029973186570207587 -0.0058350270661787895
0.0412280650114455 -0.002322193622613899 -0.005066153694066781
0.04149792185937192 -0.0029953350885288635 -0.005066153694066588
0.04149792185934471 -0.002763970787188505 0.004722966708422831
0.04122806501141726 -0.0020908293212545583 0.004722966708422957
0.041228065011416806 -0.0020981455363125196 0.004413414587282919
0.04122806501141664 -0.0020836563903826816 0.005026456415703435
0.04149158756143232 -0.002759254508542417 0.004253987809177722
0.041221661372663525 -0.0020884981346419892 0.0041457552817832834
0.04122157512303411 -0.0020816728219000174 0.004425434269015089
0.041215331866640455 -0.002338281123794075 -0.007090688390236475
0.041491433320795 -0.0030044686708180744 -0.006137404680261948
0.04121523411305828 -0.0023313690091244683 -0.006808550914049042
0.041221788421898095 -0.0023337229466553777 -0.006216400254241014
0.04148475604073396 -0.002732954896511308 0.004645731507413123
0.041485188714570166 -0.00274071035519698 0.004363259530486961
0.04121375035035316 -0.0020662845549746455 0.004250685818643937
0.04147878778852028 -0.0027361109810745913 0.003882302367426907
0.04148521758155586 -0.0027237303249098683 0.0050847383618927615
0.04121507299762346 -0.0020508891028945325 0.005041667038911514
0.041491748544965526 -0.0027309100506654224 0.005470244009718607
0.041221233325679334 -0.0022898384548383434 -0.004418214323058279
0.04121460849713118 -0.0022885937729999533 -0.005064740759385549
0.04121844061965046 -0.0022811347270675804 -0.004344700278930032
0.04148917601715939 -0.002962317189160883 -0.004592195400008851
0.041359393502377245 -0.002621310250028997 -0.0038613944904598877
0.041228065011444694 -0.0022769486659239774 -0.003151820648480713
0.04121849797600976 -0.002272910301052862 -0.003990667939705698
0.041497921859344075 -0.0027567978563178305 0.005026456415703639
0.041208930940592844 -0.0020498446847700383 0.004437619433247434
0.04120893094059258 -0.0020434744162288417 0.004707148161212727
0.041478787788520155 -0.0027166158821662414 0.004707148161212251
0.04147878778852018 -0.002729483669708836 0.004162706685143031
0.04120893094059676 -0.0020836563903828486 0.0030070320178995358
0.04121502645770633 -0.0020863816484360245 0.003535050724359545
0.041478787788523375 -0.002756797856317631 0.003007032017899833
0.041485015079196434 -0.002754666219295897 0.0037544554699012254
0.04121516307022795 -0.002079560395446527 0.003838078982769551
0.04149080845400021 -0.0030127259601530586 -0.006552722963699096
0.04148360719827298 -0.0030127069240004894 -0.007311943544581937
0.041221713837179395 -0.0023408423549658853 -0.006525497126334565
0.04121849797600708 -0.0022304609340485057 -0.0021946174614763977
0.04121849797600525 -0.0022392899228711348 -0.002568175672881851
0.04147878778851177 -0.0029080605496271113 -0.0033929558377987774
0.041488354823934176 -0.0029124313887880656 -0.0025681756728823993
0.04121850635058982 -0.002132988065556926 0.0019303842539544677
0.041228065011418354 -0.002136978076617986 0.00277039355482637
0.04149792185934546 -0.00281011954254717 0.0027703935548269274
0.041497921859345616 -0.002802042812814045 0.0031121233701230295
0.041349310880765745 -0.002465004142255207 0.0016878547777970049
0.041478787788519635 -0.002794124261542819 0.001427736190717906
0.04148829746757306 -0.0027978567516971677 0.002273471735304705
0.041478787788518975 -0.002802042812814871 0.0010926989723319019
0.04122806501141775 -0.0021289013468830972 0.003112123370123334
0.04148480397338861 -0.00300625280000669 -0.006912558301810528
0.041218564940132485 -0.0021249338360921645 0.002277345658340445
0.041208930940593136 -0.0021289013468839477 0.0010926989723315582
0.04120893094057697 -0.0023361208014751793 -0.0076748428561611405
0.04149157068509166 -0.0027381491240342755 0.005145184319262239
0.04121507934493655 -0.0020598473845761115 0.004663308292150036
0.041208930940594 -0.002113219324960555 0.00175621188315218
0.04147878778852062 -0.002778749363687679 0.0020782545536346974
0.041215484162198716 -0.0021081568835542527 0.002662037893623561
0.041484906115611335 -0.0027837299428120363 0.002513257064344489
0.04122160213122919 -0.002297579966180774 -0.004706836888187161
0.041228065011446206 -0.0023002421151560623 -0.00413737622979851
0.04122164528481733 -0.0023050862682006223 -0.005019877204811072
0.04149177649014207 -0.002975955027100552 -0.004894762131706609
0.0414979218593738 -0.002973383581069933 -0.004137376229798548
0.0414787877885067 -0.0029733835810651582 -0.0061568006275401575
0.04121494348443097 -0.0023024323958072417 -0.0056149038655927234
0.04148516254091542 -0.0029783504479392125 -0.005694154623112699
0.04148534101012423 -0.002970834595260581 -0.005357319975774471
0.04121504926768151 -0.002295261536012916 -0.005300337342490147
0.0412089309405778 -0.002292630687928459 -0.005834757957053031
0.0412089309405772 -0.0023002421151496616 -0.006156800627539693
0.041478787788507755 -0.0029657721538406037 -0.005834757957054522
0.04122173071351943 -0.00231973697038222 -0.005630738332852706
0.041491518220604165 -0.0029904933442522876 -0.005537142375847231
0.04148488330562802 -0.002992609830467201 -0.006326945767669681
0.04148501991815043 -0.0029994310834823104 -0.006601137647125135
0.0412151582312657 -0.0023243252596468265 -0.006518535548940127
0.04120893094057244 -0.002307704476639643 -0.006472536263391149
0.041215132798918606 -0.0023100700212145154 -0.0059180745960187115
0.04120893094057189 -0.0023150206917094043 -0.006782088384529636
0.041484956303575314 -0.0029857447270939044 -0.006028776112772137
0.04122806501142721 -0.0022076323004632864 -0.000219016222022899
0.041218497976006255 -0.0022122703381944647 -0.001424965738496535
0.041488354823934245 -0.0028854118041131195 -0.0014249657384962085
0.04149792185935497 -0.0028900498418438724 -0.0006114908572122137
0.04122806501142757 -0.002216908375924453 -0.0006114908572118271
0.041218497976007115 -0.002247946000646812 -0.0029344179451504127
0.04120893094058169 -0.002243660762033754 -0.0037628199057181933
0.04147878778851076 -0.0029168022279530857 -0.003762819905716648
0.041488354823931234 -0.002814277468037286 0.0015847577881907052
0.0414883548239301 -0.002822608780047744 0.0012322564900977117
0.0412089309405908 -0.0021452161445338572 0.0004024130556523671
0.04147878778851736 -0.0028183576104612233 0.000402413055653224
0.041478787788508775 -0.00293377533413499 -0.004480959129540421
0.041488355012027925 -0.002929521456906955 -0.003291243753811653
0.04121849797600641 -0.002256382698620293 -0.0032913781662167367
0.041488356082747986 -0.002937846107707414 -0.0036433502075240037
0.04120893094057869 -0.0022606338682166142 -0.00448095912954127
0.04120893094058009 -0.00225223123925838 -0.00412544038233445
0.04121849797600403 -0.0021579040120654073 0.0008752962690338485
0.04149792185934541 -0.0028267602394007035 0.002066318706229742
0.04121849816409599 -0.0021494700217521106 0.001232161780572715
0.04122806501141828 -0.0021536187734751463 0.002066318706230032
0.041497921859345546 -0.002818357610460154 0.002421837453435055
0.04121849923481583 -0.0021411453709795068 0.0015844942433155956
0.04147878778851762 -0.0028267602393976118 4.689430845365666e-05
0.04121849797600763 -0.0022647140106618097 -0.003643879464313921
0.04148835482393613 -0.0029210874665636763 -0.0029344179451504335
0.041478787788510295 -0.0029253727051738667 -0.004125440382334549
0.04149792185934416 -0.0027787493636887736 0.00409767895143212
0.04149145897914256 -0.0027814115126550444 0.0033029450191552315
0.04122191964219892 -0.0021030364517342693 0.0035578909642495662
0.04135677715517028 -0.0024589097072431985 0.0027337091568060364
0.04122228154249226 -0.0021099194666481997 0.0033048629550047814
0.0414910901735929 -0.0027891530239649645 0.00293647441728858
0.041219319169223445 -0.00211667428962186 0.002706412438557723
0.04148842178806607 -0.002954057642654761 -0.0043223324444233565
0.041228065011418596 -0.0021452161445322895 0.0024218374534353
0.041478787788502 -0.0029808459425521247 -0.006472536263390715
0.04149275413163924 -0.0027229879295896046 0.005911562650767406
0.04121849797600612 -0.002043474416230056 0.005716860360117949
0.041222990906922864 -0.0020500179422450185 0.005914188384652763
0.041228065011417105 -0.00211321932495878 0.003775636280947372
0.041497921859344096 -0.0027863607908912187 0.003775636280947969
0.04149162760784352 -0.0027522214527613454 0.004555785871656105
0.04148836319852378 -0.002946003413162079 -0.003987738209798435
0.0414921383904351 -0.00296907201216088 -0.004565343657610942
0.04147878778850292 -0.0030291467942677804 -0.008516165507166608
0.04148492984554724 -0.0030281023761396563 -0.007823738365690691
0.04147878778850267 -0.003022649275241889 -0.008241252759060303
0.04120893094057546 -0.002349507809326891 -0.008241252759060525
0.0414787877885026 -0.0030355170628302386 -0.008785694235132433
0.041228065011431086 -0.0022260027843958798 -0.0009962790851533391
0.041497921859359715 -0.002899144250312797 -0.0009962790851535978
0.041488354823932344 -0.002894597046073815 -0.0018135971700601137
0.04148835482393569 -0.0029036023999658633 -0.0021946174614766445
0.041478787788511724 -0.0028991442503053795 -0.0030157034829067365
0.04121849797600404 -0.002221455580154739 -0.0018135971700602804
0.041497921859374405 -0.003009262267388096 -0.00565541845841959
0.04122806501144728 -0.0023361208014736744 -0.0056554184584193985
0.04148493619286034 -0.0030191440944217236 -0.00744403981830695
0.0412148991928034 -0.0023460365825095355 -0.007464489819074019
0.041218497976001335 -0.0021843944325281323 -0.00024552450604957394
0.04148835482393175 -0.002866721140435567 -0.0006341559376113406
0.04121849797600565 -0.002193579674516056 -0.0006341559376109761
0.04120893094058475 -0.0021889416367640263 -0.0014476308188986432
0.04120893094059371 -0.002105607897754989 0.002078254553634663
0.04149792185934447 -0.0027941242615457354 0.003447160588512064
0.04122184067311591 -0.002057882873719091 0.005460023291058896
0.04148509096098932 -0.002747622469844222 0.004060488079450604
0.04122157647285402 -0.002074522808129367 0.004728096805218261
0.041491645269809856 -0.0027452685323209156 0.004851830902953545
0.04149792185935077 -0.0028620831026958298 0.0005717935788628395
0.041228065011424495 -0.0021889416367756043 0.0005717935788624705
0.04122806501141679 -0.00205634220376967 0.006182131082952701
0.04121494712546624 -0.0020727386789463325 0.004103917688482596
0.04122189169705464 -0.0023480814283632387 -0.006813013883852554
0.04149792185937556 -0.0030160219638468537 -0.00594142404360027
0.041491697521059176 -0.003021108605286368 -0.006813563372511964
0.04122095160606021 -0.0020662655188195263 0.005011517254729065
0.0412280650114165 -0.0020766239375537153 0.00532400243827915
0.041228065011416556 -0.002069729211572807 0.005615721180056847
0.0414979218593438 -0.0027497654034898443 0.005324002438279916
0.041208930940591484 -0.0021369780766179393 0.0007509691570396057
0.04148835482393131 -0.002806081177680749 0.0019315462635800897
0.04149792185937327 -0.0030023675413886467 -0.005363699716641556
0.041478787788514236 -0.0028900498418493654 -0.00263091525496835
0.04147878778851346 -0.002852988694216968 -0.0010628425909621649
0.04148835482393055 -0.002848530544561981 0.00013549578536530533
0.04148835482392788 -0.002857535898449077 -0.0002455245060492798
0.041478787788510656 -0.0028807737663672467 -0.0022384406197813516
0.04148835482392801 -0.0028760664722727496 -0.0010295608380527556
0.041218497976003445 -0.0021753890786412847 0.00013549578536528544
0.04120893094058674 -0.00217984722829657 -0.001062842590961866
0.04121849797600198 -0.00220292500635146 -0.0010295608380536463
0.04120893094058892 -0.002170930928984545 -0.0006855902360738541
0.04121849797600238 -0.002166560089824161 0.000509053996768052
0.041488354823929395 -0.002839701555747178 0.0005090539967688313
0.041491636254073296 -0.0029832180052358523 -0.005216862396460146
0.04122806501144584 -0.002315020691716799 -0.004762663986787701
0.04149792185937165 -0.0029881621576297503 -0.0047626639867890475
0.04120893094058988 -0.0021621892506616955 -0.00031572616815989124
0.04120893094059127 -0.002153618773471461 4.689430845258092e-05
0.04147878778851563 -0.002835330716586586 -0.00031572616815996263
0.041208930940583643 -0.00220763230044774 -0.002238440619781748
0.04122806501141974 -0.0021709309289900656 0.0013338341616940888
0.041228065011419714 -0.002179847228287277 0.0009565818068029589
0.04149792185934794 -0.00284407239491123 0.0013338341616933318
0.04149792185934742 -0.0028529886942105986 0.0009565818068008604
0.04148835482393044 -0.0028310454779901526 0.0008752962690340213
0.041228065011439864 -0.0022606338682200798 -0.0024615347317900847
0.041497921859370616 -0.0029420134020910677 -0.0028100908331839263
0.041484465345060235 -0.0027903977057965705 0.002184621962475978
0.041208930940593524 -0.0021209827956119236 0.0014277361907179202
0.04122806501144506 -0.0022848672172428217 -0.003486857866873313
0.04147878778851851 -0.002810119542546714 0.000750969157039956
0.04121512315120762 -0.0023172745076863914 -0.0062239176594923685
0.041208930940577274 -0.002322193622614142 -0.007085578091809146
0.041478787788501136 -0.002988162157627869 -0.006782088384530644
0.04147878778851181 -0.0028620831026849353 -0.0014476308188991023
0.041497921859350945 -0.0028713591781709645 0.00017931894367612518
0.04149792185935441 -0.0028807737663808183 -0.0002190162220230074
0.041228065011423044 -0.002198217712250532 0.00017931894367698734
0.041478787788512494 -0.0028713591781813555 -0.0018401054540838021
0.04120893094058678 -0.0021982177122621092 -0.0018401054540839604
0.04135266942855196 -0.0026258010156192746 -0.004761064529588981
0.041478787788509434 -0.0029500901318461623 -0.005171245046226764
0.04122806501141721 -0.0021056078977564506 0.004097678951431673
0.04122806501141421 -0.002043474416228651 0.0067265725590228065
0.041228065011415335 -0.0020498446847711216 0.00645704383105774
0.04149792185934193 -0.00272298615070659 0.006457043831057031
0.04149792185936582 -0.0029253727051714207 -0.0021060159845840616
0.041497921859342916 -0.002736110981075338 0.005901726765235611
0.04122806501141594 -0.002062969515138318 0.0059017267652355316
0.04120893094057814 -0.0022688719361721385 -0.004829515230931125
0.04147878778850896 -0.002942013402087493 -0.004829515230931212
0.041497921859340335 -0.0027166158821648853 0.00672657255902177
0.04148835482393323 -0.002716615882166289 0.005716860360118105
0.04120893094058405 -0.002226002784387077 -0.0030157034829068684
0.041497921859375016 -0.0030355170628311202 -0.0067662698373917845
0.04122806501144916 -0.002356005328352024 -0.006496741109424757
0.04122806501144891 -0.0023623755969190306 -0.006766269837390565
0.04147878778850446 -0.0030023675413870248 -0.007383124114382573
0.041497921859376646 -0.0030226492752416676 -0.006221828361319827
0.04149792185937612 -0.0030291467942662395 -0.006496741109425846
0.04120893094057749 -0.0023292260754730312 -0.007383124114382741
0.04122177075992998 -0.0023267700261904666 -0.0059240833378831
0.041228065011446324 -0.0022926306879190606 -0.0038153335593098217
0.041497921859373774 -0.0029657721538351957 -0.003815333559311323
0.04122806501144849 -0.002342880497933797 -0.005941424043600183
0.04120893094059706 -0.0020766239375510313 0.003304578040473931
0.041497921859367654 -0.00293377533413736 -0.0024615347317902838
0.04147878778850373 -0.00299533508852931 -0.007085578091809249
0.041208930940576205 -0.002342880497933195 -0.007960848441340712
0.04122806501144377 -0.002268871936176578 -0.002810090833183675
0.041497921859372074 -0.002950090131842887 -0.0031518206484816144
0.041228065011417306 -0.0021209827956136323 0.0034471605885109447
0.041218497976011584 -0.0023623755969170218 -0.007775982036261762
0.04147878778850339 -0.0030160219638466624 -0.007960848441341126
0.041228065011438546 -0.0022522312392546074 -0.0021060159845838326
0.041228065011436166 -0.002243660762040049 -0.0017433955079651131
0.04120893094058774 -0.0022169083759316695 -0.0026309152549672085
0.04149792185934725 -0.0028353307165834172 0.0017036982296132687
0.04149792185936423 -0.0029168022279577443 -0.0017433955079655691
0.04120893094057514 -0.002356005328353593 -0.008516165507167266
0.04122806501145019 -0.00234950780932847 -0.0062218283613193915
0.041478787788508734 -0.002958008683151882 -0.005506282264616754
0.04122162419458038 -0.002312711690686709 -0.0053447378998140345
0.04147878778852043 -0.002722986150707463 0.004437619433247016
0.04120893094057484 -0.0023623755969153135 -0.008785694235133416
0.04120893094057995 -0.002284867217236566 -0.005506282264617206
0.04120893094057984 -0.0022769486659301365 -0.005171245046228124
0.04149792185937073 -0.002980845942534038 -0.004453111865650301
0.04120893094059256 -0.0020629695151365155 0.0038823023674263084
0.04120893094059191 -0.0020563422037732904 0.004162706685142673
0.0412280650114196 -0.002162189250658584 0.0017036982296128756
0.04149792185934336 -0.002742870677509597 0.005615721180057107
0.041497921859373184 -0.0029580086831557527 -0.0034868578668731253
0.04120893094058309 -0.0022349190837115326 -0.0033929558377986417
0.04147878778850432 -0.0030092622673885895 -0.0076748428561606245
0.04147878778852223 -0.002742870677506108 0.003596296782251059
0.04120893094059597 -0.002069729211569638 0.0035962967822496094
0.04147878778852382 -0.0027497654034865002 0.0033045780404743607
0.04149792185934279 -0.002729483669706423 0.006182131082953071
0.04147878778852027 -0.00278636079089226 0.0017562118831520369
0.04122806501144301 -0.0023077044766171414 -0.004453111865648349
0.041497921859344 -0.002771287002245965 0.004413414587282844
0.04122806501143382 -0.0022349190837038214 -0.0013735314400468777
0.04149792185936139 -0.0029080605496211204 -0.0013735314400477145
0.04147878778851357 -0.0028440723949071894 -0.0006855902360715896
0.040958208163522226 -0.0016763663434152102 -0.006221828361319117
0.04095304043580488 -0.0016828620835566965 -0.0070420717590876526
0.04095820816352227 -0.0016828638624400256 -0.006496741109424698
0.04095193157397237 -0.0016605814807412395 -0.00621640025424171
0.04094864112807535 -0.0015112529666063185 -0.00024552450604830954
0.04094537726513044 -0.0016582275432102168 -0.006808550914049663
0.040945475018713075 -0.001665139657881069 -0.007090688390237164
0.040958208163506586 -0.0015705192961229303 -0.001743395507965335
0.0409582081635034 -0.0015617776177874138 -0.00137353144004691
0.04094864112807753 -0.0015661484569525425 -0.002568175672882711
0.0409451924197544 -0.0016221200701010755 -0.005300337342490607
0.04095174528330014 -0.0016244385002627145 -0.004706836888185339
0.04094508663650231 -0.0016292909298915475 -0.005614903865593383
0.0410825357333768 -0.002009378917730513 -0.007190103388304368
0.04094550388569881 -0.001682119688234171 -0.007806073934655591
0.040948641128084835 -0.001689234131001366 -0.007775982036260985