# vtk DataFile Version 2.0
Really cool data
ASCII
DATASET UNSTRUCTURED_GRID
POINTS 584 double
-1.0 0.0 0.0
-0.9600374798207896 -0.027590413451835553 0.04
-0.9589620457797374 -0.028177574718636023 0.0
-0.9553815213922792 0.019675326217199102 0.04
0.6719637381218919 0.02110482676547816 0.0
0.6414775595248179 0.020020515529780993 0.04
0.6571281419012174 0.06 0.0
0.6240641012293764 0.022292119262118645 0.0
0.687851041884645 0.021313940245698455 0.04
0.7030120427199962 0.06 0.04
0.657128141901218 0.06 0.04
0.7030120427199952 0.06 0.0
0.6885310613992013 -0.0196061899732657 0.0
0.6720046167250797 -0.020579604775701428 0.04
0.6407079554435648 -0.019738458112036637 0.0
0.7171469290115033 0.021165332718839136 0.0
-0.7921016077200962 -0.06 0.04
-0.7604373514312079 -0.019298436119384588 0.0
-0.7479973317145423 -0.06 0.04
-0.7479973317145417 -0.06 0.0
0.7030120427199962 -0.06 0.0
0.7030120427199952 -0.06 0.04
0.6571281419012174 -0.06 0.04
0.7479973317145417 -0.06 0.04
0.7325903506195701 -0.020274227246539274 0.0
0.7176321617908783 -0.019839353713154383 0.04
0.7604373514312079 -0.019298436119384588 0.04
-0.8488906624897727 0.019856366527450334 0.04000000000000001
-0.8052789150181434 -0.019306901564895652 0.0
-0.805541091654972 0.020469431563422978 0.04000000000000001
-0.8203038938742353 -0.020636147377884773 0.04
0.897529295217204 0.022569895749215793 0.0
0.8488906624897727 0.019856366527450334 0.0
0.8569454102823642 0.029774901726562965 0.04
0.8777357995360431 0.06 0.0
0.9553815213922792 0.019675326217199102 0.0
0.95349853104827 0.02147987272312249 0.04
0.9103536180674616 -0.021283841161765512 0.0
-0.5450807564691462 -0.01715484187473429 0.04000000000000001
-0.5372746904547943 0.02439300391790418 0.04
-0.49049502097572617 0.000359712426279548 0.04000000000000001
-0.5409244119327052 -0.005150142234760652 0.0
-0.48901428549955095 -0.02776609156780287 0.019771763033692314
-0.4642419910175897 -0.06 0.04
-0.43891524330526177 8.673617379884035e-17 0.04000000000000001
0.7479973317145423 -0.06 0.0
0.9600486361512215 0.06 0.04
1.0 0.06 0.04
1.0 0.06 0.0
0.9192992165657531 0.06 0.0
0.7479973317145423 0.06 0.04
0.7309057796957548 0.02177174945441851 0.039999999999999994
0.7479973317145417 0.06 0.0
0.7613659684934695 0.020945326906433456 0.0
0.7736855084518748 0.020914979208800512 0.04
-0.8570647961856006 -0.015388027432140593 0.0
-0.8569454102823642 0.029774901726562965 0.0
-0.8649535140731797 -0.02016838668923704 0.039999999999999994
-0.1726925416005594 -1.214306433183765e-16 0.039999999999999994
-0.22806385632140147 1.0755285551056204e-16 0.039999999999999994
-0.2006519843784229 0.06 0.0
-0.22806385632140147 -1.1796119636642288e-16 0.0
0.438611990705585 -5.252150912499892e-05 0.04
0.41358849559293387 -0.06 0.04
0.4135884955929341 -0.06 0.0
0.4642419910175897 -0.06 0.0
0.4782715374234063 0.0302584611690398 0.019894876072988572
0.513903464641242 0.06 0.0
0.49049502097572617 0.000359712426279548 0.0
0.46424199101758934 0.06 0.0
0.46424199101758934 -0.06 0.04
-0.8164681441220105 0.022269284396602723 0.0
0.48912437490067595 -0.00041996788971368666 0.04
0.4642419910175897 0.06 0.04
-0.8353421249080566 0.06 0.04
0.8649535140731797 -0.02016838668923704 0.0
0.8973163514988121 0.02144006532192878 0.04
0.5625923446839085 0.06 0.04
0.6103276788742331 0.06 0.0
0.5943416245309461 0.018901239582525348 0.04
0.5790918012159274 0.021628695864523574 0.0
-0.593631917725493 -0.01946781888421301 0.04
-0.6103276788742336 -0.06 0.04
-0.6407079554435648 -0.019738458112036637 0.039999999999999994
-0.6264545933043166 -0.021459100211208025 0.0
-0.6103276788742331 -0.06 0.0
-0.6103276788742336 0.06 0.0
-0.6240641012293764 0.022292119262118645 0.04
-0.6414775595248179 0.020020515529780993 0.0
-0.5943416245309461 0.018901239582525348 0.0
-0.5790918012159274 0.021628695864523574 0.04000000000000001
-0.5625923446839077 0.06 0.04
-0.6103276788742331 0.06 0.04
-0.5625923446839085 0.06 0.0
-0.7325903506195701 -0.020274227246539274 0.039999999999999994
-0.7176321617908783 -0.019839353713154383 0.0
-0.7309057796957548 0.02177174945441851 0.0
-0.7736855084518748 0.020914979208800512 0.0
-0.7613659684934695 0.020945326906433456 0.04
-0.6571281419012174 0.06 0.04
-0.6719637381218919 0.02110482676547816 0.039999999999999994
-0.7030120427199952 0.06 0.04
-0.687851041884645 0.021313940245698455 0.0
-0.029521960903255984 -0.06 0.04
-0.05860957814939871 -6.938893903907228e-17 0.039999999999999994
-0.05860957814939863 5.898059818321144e-17 0.0
-0.08769719539554167 -0.06 0.0
-0.08769719539554144 -0.06 0.04
-0.2823507532564078 -5.204170427930421e-17 0.04
-0.25547572826437986 0.06 0.04
-0.25547572826438003 0.06 0.0
0.38751191920162714 6.938893903907228e-18 0.0
0.3352618020299945 -3.469446951953614e-18 0.0
0.36192316205531716 0.06 0.04
0.3619231620553172 0.06 0.0
-0.36192316205531716 0.06 0.0
-0.335244821032008 -1.1796296425746478e-06 0.0
-0.3352618020299945 -3.469446951953614e-18 0.039999999999999994
-0.38745316199969926 -7.894682722445895e-06 0.0
-0.3619231620553172 0.06 0.04
-0.3092257782484355 0.06 0.04
0.28235075325640757 5.551115123125783e-17 0.039999999999999994
0.30922577824843556 -0.06 0.0
0.335244821032008 -1.1796296425746478e-06 0.04
0.3092257782484355 -0.06 0.04
0.36192316205531716 -0.06 0.0
0.38745316199969926 -7.894682722445895e-06 0.04
0.3092257782484355 0.06 0.0
-0.38751191920162714 6.938893903907228e-18 0.04
-0.28235075325640757 5.551115123125783e-17 0.0
-0.30922577824843556 0.06 0.0
0.6103276788742336 -0.06 0.0
0.593631917725493 -0.01946781888421301 0.0
0.6264545933043166 -0.021459100211208025 0.04
0.4889627886584896 -0.027603176797077415 0.020155725176282127
0.583287522480325 -0.023728770665855194 0.039999999999999994
0.5450807564691462 -0.01715484187473429 0.0
0.5409244119327052 -0.005150142234760652 0.04
-0.48912437490067595 -0.00041996788971368666 0.0
0.3619231620553172 -0.06 0.04
-0.657128141901218 0.06 0.0
0.9600374798207896 -0.027590413451835553 0.0
1.0 0.0 0.04
0.9589620457797374 -0.028177574718636023 0.04
0.5625923446839077 -0.06 0.04
0.5625923446839085 -0.06 0.0
0.7766984080639845 -0.02052537972713625 0.0
-0.438611990705585 -5.252150912499892e-05 0.0
-0.583287522480325 -0.023728770665855194 0.0
-0.9600486361512215 0.06 0.0
-0.95349853104827 0.02147987272312249 0.0
-0.9192992165657539 0.06 0.0
-0.9192992165657531 0.06 0.04
-1.0 0.06 0.0
-0.14473309882269625 -0.06 0.04
-0.14473309882269605 -0.06 0.0
-0.11621514710911887 -1.214306433183765e-16 0.0
-0.17269254160055947 1.1796119636642288e-16 0.0
-0.14473309882269625 0.06 0.0
-0.11621514710911884 1.214306433183765e-16 0.039999999999999994
-0.8353421249080566 -0.06 0.0
-0.8353421249080575 -0.06 0.04
-0.8973163514988121 0.02144006532192878 0.0
-0.897529295217204 0.022569895749215793 0.04
0.11621514710911887 -1.214306433183765e-16 0.039999999999999994
0.05860957814939871 -6.938893903907228e-17 0.0
0.05860957814939863 5.898059818321144e-17 0.039999999999999994
0.08769719539554144 0.06 0.04
0.6103276788742336 0.06 0.04
0.5139034646412424 -0.06 0.0
0.9096368506350345 -0.020963842829632554 0.04
0.805541091654972 0.020469431563422978 0.0
0.8052789150181434 -0.019306901564895652 0.04
0.8203038938742353 -0.020636147377884773 0.0
0.08769719539554144 -0.06 0.0
0.08769719539554167 -0.06 0.04
0.9192992165657531 -0.06 0.04
0.8164681441220105 0.022269284396602723 0.039999999999999994
-0.9103536180674616 -0.021283841161765512 0.04000000000000001
-0.8777357995360431 -0.06 0.0
-0.9096368506350345 -0.020963842829632554 0.0
0.8570647961856006 -0.015388027432140593 0.04
0.7921016077200956 -0.06 0.04
0.8353421249080566 -0.06 0.04
0.7921016077200962 -0.06 0.0
0.4135884955929341 0.06 0.04
0.43891524330526177 8.673617379884035e-17 0.0
-0.7921016077200956 -0.06 0.0
-0.08769719539554144 0.06 0.0
0.14473309882269605 0.06 0.0
0.1726925416005594 -1.214306433183765e-16 0.0
0.11621514710911884 1.214306433183765e-16 0.0
-0.029521960903255984 0.06 0.0
0.0 0.0 0.0
0.17269254160055947 1.1796119636642288e-16 0.04
0.14473309882269625 0.06 0.04
0.0 0.0 0.04
0.2006519843784229 0.06 0.04
0.22806385632140147 -1.1796119636642288e-16 0.04
0.22806385632140147 1.0755285551056204e-16 0.0
-0.6720046167250797 -0.020579604775701428 0.0
-0.7030120427199962 -0.06 0.04
-0.7030120427199952 -0.06 0.0
0.25547572826438003 0.06 0.04
0.30922577824843556 0.06 0.04
0.25547572826437986 0.06 0.0
-0.02952196090325599 0.06 0.04
0.2006519843784232 -0.06 0.04
0.14473309882269605 -0.06 0.04
0.2006519843784229 -0.06 0.0
0.14473309882269625 -0.06 0.0
0.2823507532564078 -5.204170427930421e-17 0.0
-0.36192316205531716 -0.06 0.04
-0.41358849559293387 -0.06 0.0
0.5372746904547943 0.02439300391790418 0.0
0.5139034646412424 0.06 0.04
-0.5139034646412424 -0.06 0.04
0.41358849559293387 0.06 0.0
-0.7171469290115033 0.021165332718839136 0.04
-0.7479973317145417 0.06 0.04
-0.7030120427199962 0.06 0.0
0.08769719539554167 0.06 0.0
0.029521960903255984 -0.06 0.0
-0.02952196090325599 -0.06 0.0
0.02952196090325599 -0.06 0.04
0.02952196090325599 0.06 0.0
0.029521960903255984 0.06 0.04
-0.47805793986482265 0.03008719549728311 0.01940109733029794
-0.4642419910175897 0.06 0.0
0.6103276788742331 -0.06 0.04
1.0 -0.06 0.04
0.9600486361512205 -0.06 0.04
0.9600486361512215 -0.06 0.0
-0.3092257782484355 -0.06 0.0
0.877735799536044 -0.06 0.0
0.8777357995360431 -0.06 0.04
-0.41358849559293387 0.06 0.04
-0.4135884955929341 0.06 0.0
1.0 -0.06 0.0
1.0 0.0 0.0
-0.14473309882269605 0.06 0.04
-1.0 -0.06 0.0
-0.9600486361512215 -0.06 0.04
-1.0 -0.06 0.04
-0.7921016077200962 0.06 0.0
-0.9192992165657531 -0.06 0.0
-0.9600486361512205 -0.06 0.0
-0.7921016077200956 0.06 0.04
-0.7766984080639845 -0.02052537972713625 0.04
-0.5625923446839085 -0.06 0.04
-0.5625923446839077 -0.06 0.0
-0.877735799536044 -0.06 0.04
0.7921016077200962 0.06 0.04
-0.3619231620553172 -0.06 0.0
-0.7479973317145423 0.06 0.0
-0.8777357995360431 0.06 0.04
-0.4135884955929341 -0.06 0.04
-0.46424199101758934 -0.06 0.0
0.513903464641242 -0.06 0.04
-1.0 0.0 0.04
-0.877735799536044 0.06 0.0
-0.30922577824843556 -0.06 0.04
[...]
POINT_DATA 584
VECTORS displacement double
0.05513116788782772 -0.04966497276545252 -0.00922861187394349
0.07109013715803904 -0.052096498903858694 -0.007358620866285935
0.06653821400824356 -0.01768185810742963 0.007403854509688955
-0.029106801904331375 0.08084304625106656 0.006779880684466249
0.012820133550600922 -0.0016500810551087102 0.0014147894386264323
0.0030461394597839616 -0.03498242215454222 0.007333125715877099
-0.019357471066012412 -0.019118250436449165 0.015625172759815845
0.0014502995752532402 -0.005748198819862021 0.0047876200649092995
0.016698448617700676 0.005874324786783948 -0.0032315834540550814
-0.014676825066791441 0.04090385824052329 -0.006013566076902799
-0.016350502983124432 -0.022037075951318656 0.01068665120790921
-0.019464430898292938 0.026798897641197188 0.00509592430049545
0.008887433825804059 -0.0015177936686309823 0.0021782029652121135
0.011961512794070832 0.01273856492165801 0.003981790426933775
0.0016011274116873608 0.01457632003459396 -0.0029637945112753294
0.004392632279081889 0.010632684558215224 0.005620219999817467
-0.004437202706862743 -0.06375511463289465 0.0037626245526802033
0.0032841830471943066 0.011604062605076938 0.007446548616849789
-0.026189609847398078 -0.00368365636080538 0.005512502210886533
-0.01901670806696057 0.015258257632107098 -0.0059138348454382825
-0.010852911364567043 -0.0185032298254795 -0.002872926416789025
-0.0059081375628796924 -0.019213870270293094 -2.7817982306579212e-05
-0.006408705473041993 0.03306880517554429 0.009533537388264566
-0.0026848477056705088 -0.032203265801871744 -0.0075090186319139995
0.0005658120615994678 -0.01797009518558386 0.0018482917689407459
0.007446524264415873 -0.03197710869985333 -0.007451925989754143
-0.008829457206893066 -0.018719957738306037 -0.005276986921771312
0.023693615725297268 -0.02176367880902554 0.004856380464635302
0.02460927998907401 -0.006701184331445033 0.0031329247297475684
-0.002244097638452858 0.02156127352396384 -0.0008392810975369967
0.031695756983088186 -0.013739949154772476 -0.001162703660738145
-0.01623127579920444 -0.008800989611547596 -0.0023177843663021187
0.01216266643216384 -0.004493894867687741 -0.0017693481125722129
0.008432436240432764 0.01412433262114824 -0.004640587078283232
-0.015405573074774085 0.03132490667100342 -0.011053587870236834
0.01641571620792292 -0.004024037823802993 0.00017422291424852224
0.019706034316571766 -0.0020115013639713506 0.0007536632839890827
0.004554579649749018 0.014776132238824945 0.0023524211162530835
-0.0079197798588117 0.009305384132598514 0.007197959375712557
-0.005403115054674262 -0.007949576467363667 0.011757519262664586
0.007572331481521701 0.013026775529842322 0.001843941194742617
-0.007136428202311791 0.0020581780316403023 0.00421243910923447
0.0003788171662190018 0.013417669368147783 -0.0004048741820987511
-0.004928553753821955 -0.01573149931211498 -0.005768276743713328
-0.002622777358986102 -0.026372169371686568 -0.01193121164652945
-0.010595501477615774 -0.023154350893498685 -0.005018384659150645
-0.01947696461782021 0.006283638285773456 0.0013305226256535385
-0.019947226391671194 0.04369405132164866 -0.0012290640897901514
-0.02211263713597999 0.03258136818303482 -0.004644952456308887
-0.01638416591590639 -0.04983726612506039 0.003847874610006025
-0.02827124416384323 0.0542299688632714 -0.0035105023623098128
0.0015548436383148693 0.018639647691424947 -0.012420155185316176
-0.02461023559146003 0.037282255139140116 0.0009064475633952824
-0.01002874434600239 0.012681634717642989 0.0016710721940189565
-0.014423986181905605 0.004990024880821455 -0.0010071041266972655
0.021393959526747743 0.005536015032186859 0.002439813414746001
0.015563614621815412 -0.03353229891906982 -0.011809488379779342
0.01971503191323228 0.03677924547257016 0.008466449233962784
0.011733820548268579 -0.030181574486272292 0.011935329786936448
-0.030383200563020726 0.010144148201096086 0.00045477943704173846
0.006510230276547487 -0.036881090855137945 0.00794085576304286
-0.02515359272271902 0.008741401736143076 0.001617604909925657
-0.010202691509183981 -0.005532733778425371 -0.005349450813404372
0.00035812170836136466 -0.05944124920147844 -0.013308223600596629
-0.0007292525598693061 -0.042159442898289975 -0.004517482995193515
-0.006704522554227598 0.019202409177755016 0.0009509396354080381
-0.011834139500112533 -0.01037141852572508 0.003382485176032463
-0.003099955495785209 -0.024681380340127193 0.008312247221496028
2.02747098339444e-05 0.0003582552274120078 0.0005179815642033332
-0.0038255810661307964 -0.006643716260689285 -0.0023574148369707557
-0.008117819398448273 0.031533531245876815 0.00791389982658852
0.005594606849419947 0.0004702394553742043 0.0015920344274132467
-0.00025972410555977785 -0.003208426531597573 0.008159765168708557
-0.0002483360984660972 0.005476670324367035 -0.0018382401257358632
-0.02526703388481831 0.03373929247042274 -0.013017730711077553
0.008144624336807075 -0.016789696906200087 0.00363771027642309
-0.014832383850226318 -0.008189815811433833 0.001784115484825288
0.017696863291182544 0.029968775086295276 -0.011229628993120142
0.0028291679554482306 0.018945719963020528 0.006236108010362004
0.0025167574842979057 -0.01556263359980817 -0.0015623417393481347
0.011990097360184221 -0.0011422876436526358 0.004282262355337283
-0.013447537124293458 -0.016234644698068075 -0.0036422680201669303
-0.010651048832477096 -0.04274845126396725 -0.004155409111506655
0.009287953591558118 -0.01869448757490279 -0.005895408094972909
-0.0001175008246426633 -0.01028349944259632 0.006181895513744647
-0.011975044243341863 -0.027161524197718695 0.00048825086838387254
0.028449050305250835 0.005623291932124192 -0.015693135358379486
0.002828769617054183 0.05102625921444672 -0.002397797998146534
0.007754066466847831 0.007622102392787682 -0.004080577378356714
8.918878079095763e-07 -0.0014184464954310068 0.0038256724025224217
-0.0007939987452212434 0.001804131782687312 0.00040817477315669115
0.02056631081984031 0.013622410997288835 0.0008472290969913868
0.03740051843947773 -0.012001415262782195 -0.0005178078608708706
0.017123614008263566 0.0042225017973686555 -0.0009454926917362087
0.015268435022940003 -0.007637320624930762 -0.0020445407638403678
0.007475457342922467 -0.004545070177649284 0.004088962911841718
0.004178488341181489 0.005767453447442873 -0.0007851242679608094
0.004483845414063227 0.006196683432361403 -0.002619963789452567
0.010211599948097028 -0.0033072838697583025 0.0011493623591931068
-0.0020208518377179885 -0.03505957987653504 -0.003273650291884237
0.009088304256883704 0.006640570116239827 0.0024038322162286325
-0.003343637238320549 -0.022720001655868977 0.004408575480304844
-0.0011967763846945493 0.0060935357704720566 -0.00679886198050632
0.006077714545710321 0.09863183616397446 0.015256962096301126
-0.029328466003352635 -0.030654646922114594 0.0012060439225212824
-0.0334246655560933 -0.028880090239746165 -0.005114984415479593
-0.02073095113469319 -0.05504090708713184 -0.0017216635621918096
-0.0306886771457042 -0.07622903370555423 -0.016196855127575283
0.0038864972274697397 0.008409794184317409 -0.013645797326776945
0.0009101575798205262 0.0526606452966929 -0.01031512714619262
0.0005249930526514684 0.03783406399926379 -0.0014761051642523128
0.01120834358041217 0.0026074804209025404 0.001909835284758897
0.00117044925002711 -0.005415150757251844 0.00015525663073035086
0.0023734003390582415 -0.003805458305376428 -0.00041879499892913863
0.0023263558252131816 -0.005823715481992284 -0.0009385718702505289
0.014319342122161141 -0.069880444609332 -0.004734979768806562
0.012245501388234966 -0.01899152794666936 -0.005912372807482456
0.022067775978565813 -0.022729268664139202 0.006717536031767428
-0.02004777855402635 0.020211365569956247 -0.0015251208416972454
0.01868854442836876 -0.10566243409976044 0.020649075419113695
0.01323465576987459 0.04108611684322743 -0.01247570637797557
-0.014289765723141584 0.005607414247089094 -0.005853920550374581
-0.007355110126910609 0.019709930955477527 0.001595317284850984
0.006190982348245249 -0.006761670295708886 0.004961630459187609
-0.004156801518099237 0.03419670590407227 0.012105877931700478
0.0053893083890256726 0.018859427957272027 -0.002545027766437629
0.012843589080530859 -0.000688648402689561 -0.0058582421171850295
-0.008992002562604818 -0.03594375495934941 -0.0032192755982135175
-0.019154676817631777 0.03356201259192298 0.0034990799249579587
0.006468094966276543 0.0060238429913411036 -0.0027618211464546212
0.012373643787316917 0.031438860273087996 -0.004076256961260069
0.001578428722808416 0.010073950646170364 0.0014802977290251556
-0.007832677231114511 -0.014131577835052382 5.5946702670874194e-05
-0.008270574992458245 0.027139124316755164 0.005143057180430205
0.0015096435742693191 0.008912921388516959 0.003673946725779481
-0.011514161959689644 -0.028624805391956148 -0.0016889909604673396
0.004924190356769236 0.005315120380791641 0.002743039640672696
0.009899732900439004 0.016267792589192667 -0.0003327516142356302
0.006241546939902078 0.01702577236079004 0.0022275208280264696
0.013170004074061468 0.0351952704731312 0.008519334269672357
0.007060919924272401 -0.01919862746607899 -0.0023571171277446453
0.009629038136154577 -0.00646903699649726 -0.0016032033882172878
0.00842327340878625 0.004441081857878283 -0.004964652168834248
0.010353121343884024 -0.00858742793866247 0.0022305327503502163
-0.00965574683516492 -0.039059252805289546 -0.00867528913603077
-0.0065103769547128765 -0.021696313974405024 -0.005453444394255056
-0.007272422462727655 0.005394544838580787 -0.0030416997348599417
0.0034297992959593385 -0.018543809063980808 0.0032933183140070824
-0.010638114798769758 -0.008364630112851552 0.002996515856196534
-0.07093840889230432 0.023418048355687327 -0.012154677990369818
-0.025953135330033995 0.0490244439868684 -0.0015324960723027215
-0.05078706085519763 -0.006471675388989483 -0.005721070498792062
-0.04485944667686627 -0.027876390699189256 0.00975244051491095
-0.0937868325605854 -0.04645136465834706 -0.00627801610818311
0.011427236134302514 -0.037569144970088904 0.000432680732318723
0.0172842486405853 -0.012600750663559446 -0.002765959306442001
0.006849962453849952 0.025482830798170028 0.006422609075434494
0.011195648362960286 -0.02242296016001761 0.0033721684917327566
0.000889271937435308 -0.010948561600491813 -0.00021420023002445223
0.011269558190107503 0.03869634455572437 -0.012107789704803624
-0.011641108166399234 -0.0015551386479348264 0.004386379734960237
-0.010525050592878145 0.0011667270397074066 0.004504639709348348
-0.019195800956833518 -0.005780626638848769 -0.004032921087257582
-0.017011843224489575 -0.000790383723339543 0.009641890965699802
-0.022233201856088472 -0.011428676301604917 -0.007338140793283969
0.015394103466688111 0.0018739744427630218 0.006848416635540595
0.027788492320020692 0.002554385188647378 -0.01889276371869518
0.010402163386223188 0.11479712831538516 -0.01955373479375842
-0.005690788948473692 0.0400708233006784 0.0042998619544252405
0.0020241125000716805 0.017836655966418924 0.0036042856689552415
0.0010365938145588584 0.014108847626200405 0.0017636122512302995
0.0020211576203591516 -0.009533098276352934 -0.002694759163611637
-0.0015216676351650993 0.016686308328126835 0.004905079887120623
0.0070760180704782585 0.009033654185648695 0.0005104659934345349
-0.0010577679805966573 -0.06525870245683864 -0.004509053266171851
0.006420658807152794 -0.09172202686557751 -0.015461317029526708
-0.013025348850665653 0.03148385639444677 0.007233871672683941
0.009692994878839666 -0.013601568085318339 0.00505869927304766
0.018517315468506945 0.010449125986816656 0.0018813433109318
-0.00829261155531443 0.007267088398271238 0.016681371427442224
0.026708412317717613 0.0049139628230647145 0.0039159057546687285
0.007140631073454775 -0.009799273514728032 0.0009696981324430231
-0.00312819395800105 0.045194848142684194 0.0019294307274507715
-0.0018780598507339194 0.007137948451703015 0.003338932321572132
-0.003750037322408353 0.029972113627575802 0.003413888310864616
0.0017947693133502215 0.03446571924811596 -0.008216639235646398
-0.005959783676901581 -0.0023409850150979445 0.0006748422826408871
-0.011219767637916519 -0.03653700282541565 0.000976862605013268
0.0158286178191913 0.05742704953719304 -0.0023695025606502262
-0.02174538934578975 -0.05407847550485945 -0.005007585034577909
0.012304712260135653 0.013530035031824175 0.0005669652135132002
-0.028832666333475702 -0.00862643631695596 -0.002181911275988028
-0.003454838395111422 -0.06162267694660468 -0.005569062420708237
0.018641261799328606 0.011154071247354042 -0.0018854216740513742
0.004358264847854963 0.018049230814941388 0.013309771895333581
-0.033152356679311414 -0.08047385670703952 0.025871996551525583
0.00907260914372719 0.01011288573861594 0.014342871214788023
0.010936197504821015 -0.026506933733753027 0.003258116972428326
0.022762818468924712 -0.013227568544122433 -0.007699278642594681
0.013694900564422675 -0.010401832280134173 0.004823254980320241
-0.0001903351443999927 0.00879782926674344 0.0013624727780899722
-0.015520882593112826 -0.01846270331289779 0.002041624942967631
-0.015289115237896656 -0.00906991862486882 -0.0009155621292175364
-0.00037571196708081374 0.08371707423405987 -0.01913487644248019
-0.000880821676630749 -0.05899822492848846 0.011443004323202003
-0.010627618668484782 0.058146581392797735 -0.009900517261519276
-0.004312395038079645 -0.08866534045419718 0.01535567052981507
0.0007575482428546685 0.008633804610714146 0.0010936803653398572
-0.013522000326892433 0.07336167001305505 0.02069227791531693
0.0001428773306363138 0.010295705369028355 0.0028626978947441247
-0.0018424342179088542 0.04883421613670081 -0.004185206033047903
-0.01438129187544702 0.0027792128067022186 -0.0008515962750379698
-0.014491269893980058 0.06989985749432989 0.012486011803852743
-0.0024778906938379064 -0.03829676426208037 -0.0003759654720066712
0.015646860258931788 0.0006642838481846365 -0.0021525375365743916
0.00822248128708657 -0.043056266207213596 0.0037487287827389117
0.0010861054547694135 0.036826796392838805 0.007558707957687269
-0.00039656658466639825 0.02469810776782584 -0.005835721885381047
0.0006868688844039571 0.027118195119815867 0.0026774283409828036
-0.024781305959423024 -0.01117221170166723 0.0015790593342217905
-0.009587368127497102 -0.002364906049898438 -0.0038082173333308838
-0.00502539330724023 0.08254903734158595 -0.0027650872533622277
0.018135017121110496 -0.008791760499140064 0.0034294317805035977
0.004885243763386982 0.07374063787359036 0.009574771627958546
0.019780090703139897 -0.003926575446193198 -0.0012440964433524577
0.023559435213270346 -0.011121173343408062 0.0018988183803514372
0.013493514671754015 -0.013384574854615023 0.008288798486329931
0.026414858401152784 0.014542986950193033 1.769089235543721e-06
0.017034954858314282 0.0152177789022704 -0.01132429786271295
0.0012337335977257414 0.012117477869003157 -0.0004413361869207634
0.007583326106719717 -0.011250898732415708 -0.0049579575014093505
-0.0028235384026751155 0.017055436071123812 -0.0031373709108740476
-0.0037664913534903506 -0.0019209664696814483 0.005504745730448577
0.02262799818706068 -0.004965855185145965 -0.0015294996099853163
-0.0033061247455097673 -0.02751306488203693 -0.0029033916116898892
-0.004440046039963126 -0.04235155982937934 -0.0028006529911397786
-0.007517182823679832 0.04265255555159927 -0.0072326117409364085
-0.006735965328117353 0.02427750595453593 -0.00830663954363917
0.0017395002744488419 -0.010728828251911638 -0.0032180317410526646
0.011790138260877773 0.006872441775806641 0.0028618717217724523
0.004691285926608351 -0.018984150653614033 0.008737574518288643
-0.07991351660524915 0.12860509852593585 0.005795339330766352
-0.04993258061261502 -0.029139916370336943 -0.019440394457248898
-0.09080325828477481 0.2192081893310725 0.008782609954816795
-0.021141347206670498 -0.003638910244468349 -0.006222227366222193
-0.008398547019762757 -0.0004072243908026191 -0.0035267820719964895
-0.045264712460395595 -0.004320468030700691 -0.010291388669952169
-0.0212371676368737 -0.012015919550960569 0.002830432333288439
0.00292582028975018 0.028787208043626247 -0.006309056199081315
-0.008671079749151614 0.00729420776427824 0.004107429900321767
-0.009746070329434985 0.005928789904572751 0.003370215123195093
-0.004383197689401816 0.004454283782343486 0.011333220432597328
-0.019578714234283517 -0.039737289469156 0.005680027317788422
-0.00797146703543701 0.052436667226813775 0.008819543158062467
-0.015611442075750994 -0.0050637187555299034 -0.0012110764534818787
0.0008400481309767308 -0.11137558393381827 -0.0064201708010128075
-0.0034354250949618047 -0.0547732243680253 -0.011942116226455857
-0.010835745415509287 -0.005242885271528552 -0.003479209905893985
0.008515445954301953 0.02283621377535016 0.004059846169150955
0.04854088156000584 -0.09025971674655146 0.012809779241218348
-0.01893935006739993 -0.08577014706548701 -0.01626176933231654
0.010793079482493922 0.011321865011899357 -0.006375385598305971
-0.024167603104541753 -0.10187896333212348 -0.011180900592637535
-0.0003302410874548402 0.09096700217502054 -0.028050307498855225
0.002883224801470509 -0.04568533015246299 -0.0012811646714617944
0.004859355686240202 -0.07738085151784187 -0.005850763552817098
-0.06747241875657597 0.010998310151499715 0.012112637474547472
-0.010721643466914945 0.0036068837399262483 -0.006885556580989341
0.01422940122492793 -0.03676728083762108 0.002463079740276446
0.0016162605688177269 0.015314995665037502 -0.0029969714092293845
-0.01847510796379696 0.002762648976067519 -0.0010612990593017746
-0.09011321891407796 -0.03992344654997264 0.0029093993629140135
0.030161329637206108 -0.07377962445940862 0.024884854163009073
0.01802997980506338 0.05917385914235505 -0.013579374079169062
-0.02091845356846048 0.006382843321140655 -0.0008994902529501185
-0.023189062013673184 0.06326410056120388 -0.01030486553031731
-0.035199791092523344 -0.08062736151554972 -0.0028403656240405103
-0.0021238378399212653 -0.06045018081117794 -0.014369520093926946
-0.0013569335558787329 0.0056240708937432046 0.0014479482238346757
-0.00639031045420618 0.021918633889202902 0.0029732194104005426
0.004397677844869203 -0.047474824014938896 0.014335121837884763
-0.016827193362237557 0.010588103098540616 -0.01555888159088758
-0.01956105561127441 -0.018412999581330667 -0.007017627899040085
-0.013600936840370607 -0.02089502882729432 -0.0012192524454388062
-0.027576810612744373 -0.027351873821726824 0.0004212549313384169
-0.005124067791878398 0.024153765498400825 0.0023884233920779914
0.01137928659222184 0.017670886745844053 -0.004126869846335257
-0.02186773988379312 0.0071862260989478625 -0.0013161349599581556
-0.00866946153514631 0.020839645225671187 0.0029634381981379397
-0.018665400406495437 0.11665698334673469 0.02423270634909036
-0.008892056905473603 0.08308273486370593 0.005602944159924426
0.005674608246547412 -0.019312091107877134 0.001856575745021894
-0.0680878984030805 -0.011119246921925136 0.006191535801618013
0.02007942501078124 0.014491068271842118 0.005827718311129658
0.006285155764349748 -0.137969099497503 -0.023715149195872892
0.033416229980349973 -0.022307688264441232 -0.00020896029955770246
-0.038616798592855085 -0.017188216764005424 0.008447735878394506
-0.01020951584456099 0.03277289501723038 0.004299746501717001
0.02082751395400628 -0.026071968837154853 0.002138815724681185
-0.026359418899491702 -0.08036994761610923 0.016486849161468264
-0.03624104423677308 0.09763036258449002 -0.02355011689122
-0.025215171144108615 -0.006929341916493793 -0.007911853331406702
-0.017814568770062395 -0.013654173206838482 0.001330320505555256
0.003385029507924904 -0.0027022365463941957 0.0004947914168132526
-0.014082515846564352 -0.012639303291949705 0.004574799834492353
0.03327756715260239 -0.06616473027076349 -0.005640545327978366
-0.03377710788516331 0.026538053106383384 0.0012535548118058819
-0.0029296582859146547 -0.05504612133238371 0.002426976413047274
-0.06781524743820248 0.07217950161134863 -0.00568908231157094