# vtk DataFile Version 2.0
Really cool data
ASCII
DATASET UNSTRUCTURED_GRID
POINTS 584 double
-1.0 0.0 0.0
-0.9600374798207896 -0.027590413451835553 0.04
-0.9589620457797374 -0.028177574718636023 0.0
-0.9553815213922792 0.019675326217199102 0.04
0.6719637381218919 0.02110482676547816 0.0
0.6414775595248179 0.020020515529780993 0.04
0.6571281419012174 0.06 0.0
0.6240641012293764 0.022292119262118645 0.0
0.687851041884645 0.021313940245698455 0.04
0.7030120427199962 0.06 0.04
0.657128141901218 0.06 0.04
0.7030120427199952 0.06 0.0
0.6885310613992013 -0.0196061899732657 0.0
0.6720046167250797 -0.020579604775701428 0.04
0.6407079554435648 -0.019738458112036637 0.0
0.7171469290115033 0.021165332718839136 0.0
-0.7921016077200962 -0.06 0.04
-0.7604373514312079 -0.019298436119384588 0.0
-0.7479973317145423 -0.06 0.04
-0.7479973317145417 -0.06 0.0
0.7030120427199962 -0.06 0.0
0.7030120427199952 -0.06 0.04
0.6571281419012174 -0.06 0.04
0.7479973317145417 -0.06 0.04
0.7325903506195701 -0.020274227246539274 0.0
0.7176321617908783 -0.019839353713154383 0.04
0.7604373514312079 -0.019298436119384588 0.04
-0.8488906624897727 0.019856366527450334 0.04000000000000001
-0.8052789150181434 -0.019306901564895652 0.0
-0.805541091654972 0.020469431563422978 0.04000000000000001
-0.8203038938742353 -0.020636147377884773 0.04
0.897529295217204 0.022569895749215793 0.0
0.8488906624897727 0.019856366527450334 0.0
0.8569454102823642 0.029774901726562965 0.04
0.8777357995360431 0.06 0.0
0.9553815213922792 0.019675326217199102 0.0
0.95349853104827 0.02147987272312249 0.04
0.9103536180674616 -0.021283841161765512 0.0
-0.5450807564691462 -0.01715484187473429 0.04000000000000001
-0.5372746904547943 0.02439300391790418 0.04
-0.49049502097572617 0.000359712426279548 0.04000000000000001
-0.5409244119327052 -0.005150142234760652 0.0
-0.48901428549955095 -0.02776609156780287 0.019771763033692314
-0.4642419910175897 -0.06 0.04
-0.43891524330526177 8.673617379884035e-17 0.04000000000000001
0.7479973317145423 -0.06 0.0
0.9600486361512215 0.06 0.04
1.0 0.06 0.04
1.0 0.06 0.0
0.9192992165657531 0.06 0.0
0.7479973317145423 0.06 0.04
0.7309057796957548 0.02177174945441851 0.039999999999999994
0.7479973317145417 0.06 0.0
0.7613659684934695 0.020945326906433456 0.0
0.7736855084518748 0.020914979208800512 0.04
-0.8570647961856006 -0.015388027432140593 0.0
-0.8569454102823642 0.029774901726562965 0.0
-0.8649535140731797 -0.02016838668923704 0.039999999999999994
-0.1726925416005594 -1.214306433183765e-16 0.039999999999999994
-0.22806385632140147 1.0755285551056204e-16 0.039999999999999994
-0.2006519843784229 0.06 0.0
-0.22806385632140147 -1.1796119636642288e-16 0.0
0.438611990705585 -5.252150912499892e-05 0.04
0.41358849559293387 -0.06 0.04
0.4135884955929341 -0.06 0.0
0.4642419910175897 -0.06 0.0
0.4782715374234063 0.0302584611690398 0.019894876072988572
0.513903464641242 0.06 0.0
0.49049502097572617 0.000359712426279548 0.0
0.46424199101758934 0.06 0.0
0.46424199101758934 -0.06 0.04
-0.8164681441220105 0.022269284396602723 0.0
0.48912437490067595 -0.00041996788971368666 0.04
0.4642419910175897 0.06 0.04
-0.8353421249080566 0.06 0.04
0.8649535140731797 -0.02016838668923704 0.0
0.8973163514988121 0.02144006532192878 0.04
0.5625923446839085 0.06 0.04
0.6103276788742331 0.06 0.0
0.5943416245309461 0.018901239582525348 0.04
0.5790918012159274 0.021628695864523574 0.0
-0.593631917725493 -0.01946781888421301 0.04
-0.6103276788742336 -0.06 0.04
-0.6407079554435648 -0.019738458112036637 0.039999999999999994
-0.6264545933043166 -0.021459100211208025 0.0
-0.6103276788742331 -0.06 0.0
-0.6103276788742336 0.06 0.0
-0.6240641012293764 0.022292119262118645 0.04
-0.6414775595248179 0.020020515529780993 0.0
-0.5943416245309461 0.018901239582525348 0.0
-0.5790918012159274 0.021628695864523574 0.04000000000000001
-0.5625923446839077 0.06 0.04
-0.6103276788742331 0.06 0.04
-0.5625923446839085 0.06 0.0
-0.7325903506195701 -0.020274227246539274 0.039999999999999994
-0.7176321617908783 -0.019839353713154383 0.0
-0.7309057796957548 0.02177174945441851 0.0
-0.7736855084518748 0.020914979208800512 0.0
-0.7613659684934695 0.020945326906433456 0.04
-0.6571281419012174 0.06 0.04
-0.6719637381218919 0.02110482676547816 0.039999999999999994
-0.7030120427199952 0.06 0.04
-0.687851041884645 0.021313940245698455 0.0
-0.029521960903255984 -0.06 0.04
-0.05860957814939871 -6.938893903907228e-17 0.039999999999999994
-0.05860957814939863 5.898059818321144e-17 0.0
-0.08769719539554167 -0.06 0.0
-0.08769719539554144 -0.06 0.04
-0.2823507532564078 -5.204170427930421e-17 0.04
-0.25547572826437986 0.06 0.04
-0.25547572826438003 0.06 0.0
0.38751191920162714 6.938893903907228e-18 0.0
0.3352618020299945 -3.469446951953614e-18 0.0
0.36192316205531716 0.06 0.04
0.3619231620553172 0.06 0.0
-0.36192316205531716 0.06 0.0
-0.335244821032008 -1.1796296425746478e-06 0.0
-0.3352618020299945 -3.469446951953614e-18 0.039999999999999994
-0.38745316199969926 -7.894682722445895e-06 0.0
-0.3619231620553172 0.06 0.04
-0.3092257782484355 0.06 0.04
0.28235075325640757 5.551115123125783e-17 0.039999999999999994
0.30922577824843556 -0.06 0.0
0.335244821032008 -1.1796296425746478e-06 0.04
0.3092257782484355 -0.06 0.04
0.36192316205531716 -0.06 0.0
0.38745316199969926 -7.894682722445895e-06 0.04
0.3092257782484355 0.06 0.0
-0.38751191920162714 6.938893903907228e-18 0.04
-0.28235075325640757 5.551115123125783e-17 0.0
-0.30922577824843556 0.06 0.0
0.6103276788742336 -0.06 0.0
0.593631917725493 -0.01946781888421301 0.0
0.6264545933043166 -0.021459100211208025 0.04
0.4889627886584896 -0.027603176797077415 0.020155725176282127
0.583287522480325 -0.023728770665855194 0.039999999999999994
0.5450807564691462 -0.01715484187473429 0.0
0.5409244119327052 -0.005150142234760652 0.04
-0.48912437490067595 -0.00041996788971368666 0.0
0.3619231620553172 -0.06 0.04
-0.657128141901218 0.06 0.0
0.9600374798207896 -0.027590413451835553 0.0
1.0 0.0 0.04
0.9589620457797374 -0.028177574718636023 0.04
0.5625923446839077 -0.06 0.04
0.5625923446839085 -0.06 0.0
0.7766984080639845 -0.02052537972713625 0.0
-0.438611990705585 -5.252150912499892e-05 0.0
-0.583287522480325 -0.023728770665855194 0.0
-0.9600486361512215 0.06 0.0
-0.95349853104827 0.02147987272312249 0.0
-0.9192992165657539 0.06 0.0
-0.9192992165657531 0.06 0.04
-1.0 0.06 0.0
-0.14473309882269625 -0.06 0.04
-0.14473309882269605 -0.06 0.0
-0.11621514710911887 -1.214306433183765e-16 0.0
-0.17269254160055947 1.1796119636642288e-16 0.0
-0.14473309882269625 0.06 0.0
-0.11621514710911884 1.214306433183765e-16 0.039999999999999994
-0.8353421249080566 -0.06 0.0
-0.8353421249080575 -0.06 0.04
-0.8973163514988121 0.02144006532192878 0.0
-0.897529295217204 0.022569895749215793 0.04
0.11621514710911887 -1.214306433183765e-16 0.039999999999999994
0.05860957814939871 -6.938893903907228e-17 0.0
0.05860957814939863 5.898059818321144e-17 0.039999999999999994
0.08769719539554144 0.06 0.04
0.6103276788742336 0.06 0.04
0.5139034646412424 -0.06 0.0
0.9096368506350345 -0.020963842829632554 0.04
0.805541091654972 0.020469431563422978 0.0
0.8052789150181434 -0.019306901564895652 0.04
0.8203038938742353 -0.020636147377884773 0.0
0.08769719539554144 -0.06 0.0
0.08769719539554167 -0.06 0.04
0.9192992165657531 -0.06 0.04
0.8164681441220105 0.022269284396602723 0.039999999999999994
-0.9103536180674616 -0.021283841161765512 0.04000000000000001
-0.8777357995360431 -0.06 0.0
-0.9096368506350345 -0.020963842829632554 0.0
0.8570647961856006 -0.015388027432140593 0.04
0.7921016077200956 -0.06 0.04
0.8353421249080566 -0.06 0.04
0.7921016077200962 -0.06 0.0
0.4135884955929341 0.06 0.04
0.43891524330526177 8.673617379884035e-17 0.0
-0.7921016077200956 -0.06 0.0
-0.08769719539554144 0.06 0.0
0.14473309882269605 0.06 0.0
0.1726925416005594 -1.214306433183765e-16 0.0
0.11621514710911884 1.214306433183765e-16 0.0
-0.029521960903255984 0.06 0.0
0.0 0.0 0.0
0.17269254160055947 1.1796119636642288e-16 0.04
0.14473309882269625 0.06 0.04
0.0 0.0 0.04
0.2006519843784229 0.06 0.04
0.22806385632140147 -1.1796119636642288e-16 0.04
0.22806385632140147 1.0755285551056204e-16 0.0
-0.6720046167250797 -0.020579604775701428 0.0
-0.7030120427199962 -0.06 0.04
-0.7030120427199952 -0.06 0.0
0.25547572826438003 0.06 0.04
0.30922577824843556 0.06 0.04
0.25547572826437986 0.06 0.0
-0.02952196090325599 0.06 0.04
0.2006519843784232 -0.06 0.04
0.14473309882269605 -0.06 0.04
0.2006519843784229 -0.06 0.0
0.14473309882269625 -0.06 0.0
0.2823507532564078 -5.204170427930421e-17 0.0
-0.36192316205531716 -0.06 0.04
-0.41358849559293387 -0.06 0.0
0.5372746904547943 0.02439300391790418 0.0
0.5139034646412424 0.06 0.04
-0.5139034646412424 -0.06 0.04
0.41358849559293387 0.06 0.0
-0.7171469290115033 0.021165332718839136 0.04
-0.7479973317145417 0.06 0.04
-0.7030120427199962 0.06 0.0
0.08769719539554167 0.06 0.0
0.029521960903255984 -0.06 0.0
-0.02952196090325599 -0.06 0.0
0.02952196090325599 -0.06 0.04
0.02952196090325599 0.06 0.0
0.029521960903255984 0.06 0.04
-0.47805793986482265 0.03008719549728311 0.01940109733029794
-0.4642419910175897 0.06 0.0
0.6103276788742331 -0.06 0.04
1.0 -0.06 0.04
0.9600486361512205 -0.06 0.04
0.9600486361512215 -0.06 0.0
-0.3092257782484355 -0.06 0.0
0.877735799536044 -0.06 0.0
0.8777357995360431 -0.06 0.04
-0.41358849559293387 0.06 0.04
-0.4135884955929341 0.06 0.0
1.0 -0.06 0.0
1.0 0.0 0.0
-0.14473309882269605 0.06 0.04
-1.0 -0.06 0.0
-0.9600486361512215 -0.06 0.04
-1.0 -0.06 0.04
-0.7921016077200962 0.06 0.0
-0.9192992165657531 -0.06 0.0
-0.9600486361512205 -0.06 0.0
-0.7921016077200956 0.06 0.04
-0.7766984080639845 -0.02052537972713625 0.04
-0.5625923446839085 -0.06 0.04
-0.5625923446839077 -0.06 0.0
-0.877735799536044 -0.06 0.04
0.7921016077200962 0.06 0.04
-0.3619231620553172 -0.06 0.0
-0.7479973317145423 0.06 0.0
-0.8777357995360431 0.06 0.04
-0.4135884955929341 -0.06 0.04
-0.46424199101758934 -0.06 0.0
0.513903464641242 -0.06 0.04
-1.0 0.0 0.04
-0.877735799536044 0.06 0.0
-0.30922577824843556 -0.06 0.04
[...]
POINT_DATA 584
VECTORS displacement double
-0.0004988102472885051 -0.07078251917944553 0.0022363228110826917
0.002341074262526127 -0.06638406549889465 0.0021885907618701336
0.002128839553056767 -0.06648674473271822 0.002119176638270915
-0.002115583207936262 -0.06598172965604031 0.0018470805893589194
0.0021107260420363924 -0.02386326937123876 0.0005288749557943846
0.001873571862361363 -0.01863103253995279 0.00039867308792421185
0.005864708426573724 -0.021381673649290084 0.00045198920553515945
0.0021710737628242893 -0.015794223866232804 0.0003484874407562543
0.002041380411770655 -0.02653187277437685 0.0005340400613934511
0.005940808885756155 -0.02902379192981556 0.0005757123581507446
0.005810837379001882 -0.021354471146777455 0.00040754028339511105
0.00599069562165733 -0.029008663876819916 0.0006403711533460868
-0.001673241287849876 -0.026636498172882144 0.0005461918599827488
-0.0018566191741042708 -0.02393290628242629 0.000517485567803187
-0.001576743891543236 -0.018596004184876832 0.0004436079590448275
0.0021501324258639876 -0.03129637847417086 0.0006444870887420825
0.005541951827113746 -0.04335353086913978 0.0010339992448111551
0.001199052730536671 -0.03815328372584917 0.0007777948532225741
0.005475830144463199 -0.03600984815421506 0.0006232614162422248
0.005141088804995202 -0.036134451998309176 0.0006996081133405918
-0.005360149172369001 -0.028989419069262282 0.0005855664095841615
-0.00548138628085667 -0.028924687956209522 0.000650404865229989
-0.005334635567798645 -0.021560073088446707 0.0004910256264289382
-0.0055778941825839045 -0.03636132426036687 0.0007102021032566946
-0.001771057116676595 -0.033801145438059586 0.0006691559509568895
-0.0018222218999162654 -0.03135244742209442 0.000654074225208004
-0.0018194558695142828 -0.0383490956548408 0.0007487683350670753
-0.0021632269601192583 -0.05183709462174355 0.0013817660420155462
0.001223613728661798 -0.045421256145853434 0.0011263996769924575
-0.0022122896673534534 -0.04553565615540938 0.0011248338573345677
0.001617514445003451 -0.04768356303366115 0.0012248870781102728
0.0022887491646812266 -0.05811761844258992 0.001044769547102301
0.0019222659896874885 -0.05121974611662189 0.0009471930459217621
0.0029121579284598683 -0.05278615840586106 0.0009909923299548182
0.005611943764519572 -0.05527375997139568 0.0011430554910945656
0.0023272008773753614 -0.06437670534311114 0.001253767964197532
0.002319603109236528 -0.06416331092124766 0.0012293688291832219
-0.001959883249407322 -0.059509583155395215 0.001048478474492879
0.0013944532452382964 -0.0017605987513174535 -0.0004109495147275673
-0.0020449781453835397 -0.0005304320393771989 -0.0004565923120272895
-0.00011330446069830013 0.006931017147083824 -0.000575592392830706
0.00023068438844200565 -0.0010988520378334792 -0.00045341955782378206
0.0019781001989163014 0.007137466240713347 -0.0005691077726337796
0.004419750277295064 0.010974849547166708 -0.00047775996403887647
-0.00015294201940317255 0.014607522511076259 -0.000638508300898798
-0.005457637335986315 -0.03633673795852934 0.0006869641547314153
0.005397473416243493 -0.06492000973597326 0.0012909953447651575
0.005495596665948907 -0.0686399743776014 0.001385044115570613
0.005624354626898121 -0.06866871034425308 0.0014164539069147465
0.005544014166962069 -0.06087252741058878 0.0011623275605633372
0.0061583329754567396 -0.036412116436965264 0.0007179313177916942
0.0021173525502343857 -0.033534426348104635 0.0006844264690445258
0.006184429273644899 -0.036394350050369985 0.0007858137422820813
0.0021700954910744245 -0.038493629437150866 0.0008055027607867915
0.0021075563794337947 -0.04049744800792081 0.0007949377110443447
0.0009287642935466269 -0.05307454118330124 0.0014799123029901483
-0.0033337022874376236 -0.0529775885040197 0.0014746268209842118
0.0016520864367998917 -0.05413287925613452 0.001527986951447977
-0.00024743769072825675 0.04592343472064976 -0.0010089889654771257
6.941222376217175e-05 0.041112657558849595 -0.0009422143369598972
-0.00203024446016885 0.04391259242528547 -0.0008131780011121187
8.329904501920044e-06 0.04115051313027255 -0.0008882606036700027
1.013438843965127e-05 0.0143136522609942 -0.00010038994646727369
-0.003808083276024961 0.01776315534696511 -0.00012617356603384034
-0.003763831053209315 0.017745568114157426 -0.00018422223227278637
-0.004080716955202111 0.01019501872252235 -3.247173983064816e-05
0.0024719151952522834 0.007841827209396749 -4.632114403312396e-05
0.004914390107430299 0.0023815558486396985 -1.6727568623159474e-05
0.0002473407441448883 0.00592124803490527 1.9167314338646022e-05
0.004633716675018456 0.009946433022126323 -4.9180143306633094e-05
-0.004305671502994448 0.010316489827810258 0.00010803235599350957
-0.002589516636866838 -0.047023410733282596 0.001262018070714871
5.1799090270589645e-05 0.006180969922154738 8.485324496989213e-06
0.004532544249051226 0.009844065225003152 -0.00013831250892454563
-0.005987274691835203 -0.049807241287637985 0.0013147853772044033
-0.001964270033213813 -0.05332014437945294 0.0009467475386895693
0.0022106313214721985 -0.05810016615964647 0.0011110813687198824
0.005161377252772669 -0.0057616355076625944 0.00012878752500812993
0.005531938138768509 -0.013623048111843823 0.0003234230622012562
0.001717443552218486 -0.010868324311867569 0.000270513248268142
0.0020273209254551942 -0.00838130509424872 0.00021036216179798117
0.0015887756840468343 -0.010414272708993196 -0.00034250551376557457
0.0053781404012250445 -0.01315282356831696 -0.0004901684041118196
0.0019334903572986442 -0.018206300005085576 2.4123241259050334e-05
0.0017485427846158494 -0.015596819111033023 -0.00015207575286864186
0.005136529143767915 -0.013033167337891964 -0.0004956743316724813
-0.005595698336932964 -0.012444569393943615 -0.00020770629230566347
-0.0019263875336489194 -0.014681910052735036 -6.413344833570015e-05
-0.0019150180288349573 -0.018336027086597147 -5.217857280544493e-05
-0.0019895625212887212 -0.01001699600157457 -0.00018313963464136954
-0.0020424232490249216 -0.007606494813515094 -0.0003094116773402343
-0.005312655643948649 -0.005357990115395728 -0.0003178544464376454
-0.005626979239301175 -0.012298877691305875 -0.0002359894972330353
-0.0052887966860685085 -0.00517376602773527 -0.0004366968317132984
0.0016240103341412613 -0.0338588886797263 0.0006822766479667089
0.0013128410809862471 -0.03126829370922661 0.0004001790961069037
-0.0025265543273654822 -0.033551903361820734 0.000695140256372029
-0.002528210232652337 -0.04038360223294434 0.0010362289600260215
-0.002240365531510975 -0.03863104579082765 0.0008897438776903366
-0.006374242838232127 -0.022549493443476135 0.00012673149146027245
-0.0022344882193234133 -0.024157258016219808 0.0002909078900917778
-0.006621981098652303 -0.027559593090747934 0.0005411354183591094
-0.002698073931744692 -0.026238666122284617 0.0003630351992099946
0.00032456920536254037 0.05304315064356821 -0.0012370105462794904
-0.0002079999903472884 0.051073541059900744 -0.0010128985610598762
-0.0002501441888861484 0.051217277198839395 -0.0010989818804248543
0.000631781944342489 0.04930217091337232 -0.0013715805253127983
0.0009945500141274656 0.0490093541930472 -0.0011689303578661665
-0.00020031850013463488 0.03561376462911318 -0.00081932325132363
-0.0026687877616327635 0.03801669212800694 -0.0008227110715631331
-0.0024683564690261292 0.03810677150718629 -0.0007563667826739008
0.00019061769347254387 0.021522280072573056 -0.00027150775142453836
0.0001763043501669105 0.0286161543573992 -0.0004414887098808511
0.003792826577399164 0.025180469062810833 -0.00043582208190695045
0.003909464956352923 0.025150611043502503 -0.0003462150611978449
-0.003542512620964807 0.025958761651672126 -0.0007445950907857166
-0.00012311125492528178 0.029374093873067414 -0.0007680164297527824
-8.593528794704523e-05 0.029405913350322697 -0.0007902014437668469
-8.969619710828728e-05 0.02250252553201631 -0.0006871201689976461
-0.0036848881868931324 0.026052804311066914 -0.0008470457385367401
-0.0032697449377856935 0.03243956360431789 -0.0008534655942741402
3.564710824919535e-05 0.03490945015533532 -0.0005395122843294866
-0.002985711692602797 0.031823604457870434 -0.00047000213587032233
0.00016978050823602124 0.028636727137245615 -0.00039357180667228973
-0.003085067766807927 0.03189066634827551 -0.0003806952684173945
-0.003384132982554101 0.02492110837682352 -0.000353093022712456
1.2828797461786716e-05 0.021532882527799186 -0.00030936430030860563
0.003424082520391464 0.03145254724655212 -0.0004739863520402223
-0.0001112409036214183 0.022524684163895203 -0.0007182374979694737
-0.00022421938260706078 0.035657929114530224 -0.0008275487391152512
-0.0030002312048585454 0.03243177975628581 -0.0007124869324659153
-0.004956113086620389 -0.013573215183383235 0.00037605076011487296
-0.0014981988440535567 -0.010753305826726 0.000281300940395121
-0.0018217072217385733 -0.016115823965349507 0.0003969091753233619
-0.001867542342713358 0.006153254363569923 5.979493169616878e-05
-0.00193732154842312 -0.009002761863235358 0.00029940568707623454
-0.001259833493080946 -0.0026925228592779623 0.00018607643628288243
-0.00039707112019305135 -0.0019046438015505969 0.0001111743304759146
-0.00012986186243182815 0.007173707831289904 -0.0005855397452445643
-0.003490698749539742 0.02498821503995908 -0.00026709220618702565
-0.0063605906743038985 -0.022003199930820453 0.000287884327320018
-0.0025275481946807022 -0.06483310619404786 0.001270082946460035
0.00016558496889652628 -0.06928381567856433 0.0013916423855975986
-0.0028012233536757005 -0.06463211216103368 0.0012144447511676696
-0.004808780563974176 -0.005579846977937902 0.00030004420950561334
-0.004754623928225308 -0.005619016234834956 0.00023968322883308757
-0.0018350294197557592 -0.04089480804435985 0.000760859110232504
-0.00019605908970766792 0.014624335943819362 -0.0006842406138947689
0.0017905480701764281 -0.008330673902151031 -0.000412153783171434
-0.006073415654192418 -0.06659720642066942 0.0017581004768789635
-0.0024635360582534087 -0.06589154992085139 0.0018868147511251429
-0.0061096124480447805 -0.06142607842360436 0.001675395745798559
-0.005968971622013418 -0.06119897831576504 0.0015578102808560534
-0.006079221656423709 -0.07070944003245973 0.001888627664761962
0.0013831425290634274 0.04823373589771448 -0.0010732044906207315
0.0013275160274072023 0.04813027642153695 -0.00112501654853069
0.00015781503633600536 0.04879655893013324 -0.0010288890380976989
-0.00027053731539753193 0.046009171483182336 -0.0009809542391662942
-0.0013264142583034988 0.0470498049512799 -0.0008384451590167887
0.00012598603605795198 0.04865270565642708 -0.0010224699888002732
0.005339057786284659 -0.05003417531313003 0.0013338168578204636
0.0056448633065604515 -0.050063623113550754 0.0013598979492779886
-0.0024856712352595398 -0.05863878148528256 0.0016327982926628445
-0.002435912029213582 -0.05864117870373889 0.0016363035473971133
0.00024216097299710595 0.04874780594239446 -0.0008813872980974855
-5.066537636419476e-06 0.05099767600746876 -0.0010587101679669945
-2.1201293505007705e-05 0.05085660342097904 -0.0010048867202080323
0.000957864468836731 0.049584019367165645 -0.0008306251523547051
0.005510180164652518 -0.01360786784220877 0.00024181278499506276
-0.004343594758663853 0.0020029041355515255 0.0001330741030782269
-0.0021104948626997724 -0.05954933091765021 0.0011021311222064356
0.002172061846629257 -0.045138260335463455 0.00095697486217161
-0.001900521139176643 -0.04532651130979939 0.0008762098232313127
-0.0019330363750411003 -0.04734898015702942 0.0008630379875962724
-0.000859573323033477 0.050553173111818964 -0.0012336433681244079
-0.0007763802190747923 0.05055311444543864 -0.0010827718875455633
-0.005444110161199619 -0.06043731149838756 0.0010085156441567702
0.002284111633051155 -0.046775946692254884 0.0009087047086877363
0.0017485007903867208 -0.060222079120109906 0.001825338221905568
0.005396592707798222 -0.05595387387657963 0.001682846324423729
0.0014638088940254633 -0.060267606405054235 0.001804733273980571
-0.001605770918395936 -0.05220612114235128 0.0010489120137581374
-0.00562193231399379 -0.04337871032522218 0.0007575606099605439
-0.00558495561339505 -0.0493427029418265 0.0009379222723048094
-0.005538722299266408 -0.043377108240356496 0.0007881084240686468
0.004029137968119438 0.01784304913651576 -0.00025031999908407614
0.0001963359448319389 0.014199225968254608 -0.00011874788738893842
0.005267152329333931 -0.04337086756488304 0.0010356300526090892
-0.0009032632497408068 0.050321104291634174 -0.0008450697509982228
0.0017320280758410982 0.04727800677583155 -0.0006230060047102018
0.00012152109017334593 0.045377852267017744 -0.0007774139198422937
0.0002962341250503625 0.04890726188091141 -0.0009048496100366178
-0.0002547031332944314 0.05121772119429761 -0.0008847131082220464
0.0003587167838387963 0.05212431740633827 -0.0010906945810577576
6.549439033845835e-05 0.045275301035846496 -0.0007747995838196199
0.0016828229346336303 0.047263961958515247 -0.000754428430031251
0.0004074230728811981 0.051904846785841854 -0.0010063403088983358
0.002465438269533201 0.04253622436360798 -0.0006855315272988606
0.000282824493723842 0.04066999672585843 -0.0006519205746022637
0.0003257897614748211 0.040660742670076286 -0.0006627581176985475
0.0014241703346515614 -0.022940296682772816 -2.683099172449473e-05
0.005504146109559359 -0.028748080969537373 0.00022329867916120417
0.005112289849271172 -0.028662530992768224 0.00017230377203550777
0.0029264813894607686 0.03823953859691603 -0.0006764034338405158
0.0033566566474283873 0.03137023199756642 -0.00045313454899180227
0.003070624804698479 0.03814714802398679 -0.0005995016446562083
-0.0002864224579442437 0.05119396900032105 -0.0010148574849236356
-0.0020941804958313176 0.0432483192573689 -0.0006786099602041076
-0.0013342441225676644 0.046578740223825056 -0.0010462830878276918
-0.0018607211504201395 0.04325948216045623 -0.0008346795548544736
-0.0013142052737669377 0.046787808688537005 -0.001052374831071215
0.00011590802745731461 0.03491994338293766 -0.0005247312520199033
0.0036486863454943115 0.02592752424124066 -0.0006811500783649757
0.003962172154396406 0.018418426149856323 -0.0006898249689355413
0.002106475266907807 -0.0013655399857610718 0.00013301909887272493
0.004831901910232294 0.002543338520755989 -9.19065664724965e-05
0.004818172055339858 0.0030564362779295167 -0.00044590046687056467
0.004208703133597433 0.01779492973770645 -0.00022202187169645442
-0.0021975071003910627 -0.03159068431503281 0.0005347393307074624
-0.005932119144044185 -0.03637676653146641 0.0008559613474904779
-0.00653862496108542 -0.028091219942490985 0.0005827678870936557
0.0011473178842625986 0.04969637180604694 -0.0007567773573743954
-0.0003273760643337277 0.050907004447292674 -0.0013347038197771568
0.00020696804189459042 0.05301200266346521 -0.0013696254490895227
-0.00012619186673993593 0.05070409586570866 -0.001321159382366091
0.0005755813109061233 0.05190123708326436 -0.0008504242410923127
0.000469595712737272 0.051765864404768436 -0.0009314416324173616
-0.002331145992586209 0.00890891741055201 -0.0006376490222416116
-0.004412582392641232 0.010891106724621125 -0.0006848082954254252
-0.0050445571099432185 -0.013526938388422999 0.00042879123996742905
-0.005867835938898507 -0.06899324120309917 0.001522453470936258
-0.005652273629414696 -0.0651627553082191 0.0012386933779596871
-0.005521895642480624 -0.064948504318989 0.0012016765341925975
0.0029449512933269364 0.032114259788808594 -0.0008527827206701494
-0.005579603495939948 -0.0550431329771057 0.0010062487992422602
-0.005660082970385672 -0.05500932030407315 0.0010255482638924299
-0.004230509722860104 0.01819457614016314 -0.000777108644356145
-0.004032230651877861 0.018205144398846154 -0.0006965614843150466
-0.005673516306290818 -0.06904180787256285 0.0014581052951874213
0.0003221370118848802 -0.06919109715506079 0.0014475419833877784
-0.0014132630125818927 0.04697879335119501 -0.000909374723996376
0.005267191271112955 -0.07093948868414586 0.0025694705414382913
0.005659184636552082 -0.06619606069136483 0.0023767868351577638
0.005585577033405821 -0.07079689940768634 0.002652292681790062
-0.006264688633958067 -0.04308902310175246 0.001260392986909138
0.005403610591709535 -0.06150858757145723 0.001998962792661461
0.005333437365505415 -0.06650181283932206 0.002286785062314022
-0.006058389312028293 -0.042993762413474614 0.00118286841862965
0.001576243257052077 -0.040813044179413886 0.000974796269002766
0.005256379212158805 -0.00449607526077679 -0.00035196096982981196
0.004991611285521573 -0.004594699620121475 -0.00048313032836043294
0.005713871760603817 -0.05585050650076356 0.0017127282934805128
0.006250376703760089 -0.04329905312627043 0.0009369344046804058
0.0034829258239231515 0.025935352928766812 -0.0007618490714072694
-0.006303796419436673 -0.03632813351146763 0.0009107052067878529
-0.006040366281487155 -0.05576642037462198 0.0015271835892226825
0.004247408591425956 0.018463594158542096 -0.0005168887495559153
0.004353545501254436 0.010805343553547536 -0.0005140622168901616
-0.004524891340408662 0.0019815808113036234 0.00013786755206910748
-0.0002733514941281492 -0.07049993283493129 0.002215798789262774
-0.006228568935692045 -0.055861928146464415 0.0015519743179981302
0.0032064394639151556 0.03202136644498824 -0.0007823695164341164
0.002644686188016242 0.038835983733736215 -0.0008402727930957033
-0.0010310061478719683 0.050412176009902845 -0.0010726190900761288
-0.002579817301785194 0.03752513731955112 -0.000661705833241269
0.0025788153547799844 0.03880264102206685 -0.0009198341787223698
-0.005959338845327356 -0.0663584614676952 0.0016266331442640113
0.005743124913395422 -0.06134129002912853 0.0020458038043542335
-0.00483479558810714 0.003066398535800728 -0.0005723181358168118
0.0015125920638966082 -0.025933293602655474 0.0003876015383907112
0.005579194544855774 -0.06486949915286092 0.0012985077938720056
-0.0059861766313503055 -0.07044738374433708 0.0017787164447230041
-0.004654201525139924 0.003042703913769767 -0.0005741092407768483
-0.004433595050833399 0.011174640793396567 -0.0008370599343007565
0.005012283944956776 -0.020022113524775776 -0.00027486555375332087
0.005357008084951104 -0.054975591751103906 0.001003534679002233
0.005151277904263248 -0.06107977691725654 0.0010507469835714614
-0.0025577796251029243 0.03750613126273241 -0.0005364570594566948
-0.0055332474063123725 -0.049380494883634184 0.000914238037213134
0.004740463869714081 0.003070853425504737 -0.0005495327591537208
-0.0021592756763763165 0.04395500238545627 -0.0009539726118353537
-0.006223554100001579 -0.04980437759319384 0.0013797492284351998
0.006118924991783525 -0.04873922276367252 0.0013422328964183996
0.006117337507823292 -0.048479348574494534 0.0009684761848374176
0.006327325789370681 -0.04319775469065889 0.0010645058095160012
-0.005464274169521068 -0.060509726725713295 0.0011039270448468428
0.005278458073060968 -0.005745001860008177 0.00018024945968096433
0.005235877197174785 -0.019808138145048025 -0.0001361520073344886
-0.005243832713039796 -0.021507457022563795 0.00045386261373446394
0.002174144991891489 0.042688882293161874 -0.0010635738861987291
0.001859939432447978 0.04291494842752396 -0.0011672888535861241
0.0023076001517382734 0.042662129763003924 -0.0005136468247355899
0.006090799216944767 -0.061216507262041545 0.0020478200993858603
0.0027102853416950297 -0.06612951865244401 0.002178176807446073
0.00603324872379432 -0.06607492086664324 0.0023529730163262172
0.0020201132983014183 -0.047740132080005514 0.0012611134785076698
0.0002048722017474066 0.04866314001076439 -0.0009242269801077434
-0.002140600008470506 -0.045418853088048126 0.0011300474455082103
-0.0020163890260337506 -0.05179114732570044 0.0013838101198505445
0.0027971814233080676 0.03874757279727331 -0.000984681498316234
0.002355878332067232 0.04288042448673399 -0.0009229797941737713
0.00018651255699861957 0.04111825189699862 -0.0009086487699612299
-0.0017377840844508337 -0.007848220501043585 -0.00036225281044334517
0.0014927941796105408 -0.010128326456942532 -0.00019546626437909995