# vtk DataFile Version 2.0
Really cool data
ASCII
DATASET UNSTRUCTURED_GRID
POINTS 584 double
-1.0 0.0 0.0
-0.9600374798207896 -0.027590413451835553 0.04
-0.9589620457797374 -0.028177574718636023 0.0
-0.9553815213922792 0.019675326217199102 0.04
0.6719637381218919 0.02110482676547816 0.0
0.6414775595248179 0.020020515529780993 0.04
0.6571281419012174 0.06 0.0
0.6240641012293764 0.022292119262118645 0.0
0.687851041884645 0.021313940245698455 0.04
0.7030120427199962 0.06 0.04
0.657128141901218 0.06 0.04
0.7030120427199952 0.06 0.0
0.6885310613992013 -0.0196061899732657 0.0
0.6720046167250797 -0.020579604775701428 0.04
0.6407079554435648 -0.019738458112036637 0.0
0.7171469290115033 0.021165332718839136 0.0
-0.7921016077200962 -0.06 0.04
-0.7604373514312079 -0.019298436119384588 0.0
-0.7479973317145423 -0.06 0.04
-0.7479973317145417 -0.06 0.0
0.7030120427199962 -0.06 0.0
0.7030120427199952 -0.06 0.04
0.6571281419012174 -0.06 0.04
0.7479973317145417 -0.06 0.04
0.7325903506195701 -0.020274227246539274 0.0
0.7176321617908783 -0.019839353713154383 0.04
0.7604373514312079 -0.019298436119384588 0.04
-0.8488906624897727 0.019856366527450334 0.04000000000000001
-0.8052789150181434 -0.019306901564895652 0.0
-0.805541091654972 0.020469431563422978 0.04000000000000001
-0.8203038938742353 -0.020636147377884773 0.04
0.897529295217204 0.022569895749215793 0.0
0.8488906624897727 0.019856366527450334 0.0
0.8569454102823642 0.029774901726562965 0.04
0.8777357995360431 0.06 0.0
0.9553815213922792 0.019675326217199102 0.0
0.95349853104827 0.02147987272312249 0.04
0.9103536180674616 -0.021283841161765512 0.0
-0.5450807564691462 -0.01715484187473429 0.04000000000000001
-0.5372746904547943 0.02439300391790418 0.04
-0.49049502097572617 0.000359712426279548 0.04000000000000001
-0.5409244119327052 -0.005150142234760652 0.0
-0.48901428549955095 -0.02776609156780287 0.019771763033692314
-0.4642419910175897 -0.06 0.04
-0.43891524330526177 8.673617379884035e-17 0.04000000000000001
0.7479973317145423 -0.06 0.0
0.9600486361512215 0.06 0.04
1.0 0.06 0.04
1.0 0.06 0.0
0.9192992165657531 0.06 0.0
0.7479973317145423 0.06 0.04
0.7309057796957548 0.02177174945441851 0.039999999999999994
0.7479973317145417 0.06 0.0
0.7613659684934695 0.020945326906433456 0.0
0.7736855084518748 0.020914979208800512 0.04
-0.8570647961856006 -0.015388027432140593 0.0
-0.8569454102823642 0.029774901726562965 0.0
-0.8649535140731797 -0.02016838668923704 0.039999999999999994
-0.1726925416005594 -1.214306433183765e-16 0.039999999999999994
-0.22806385632140147 1.0755285551056204e-16 0.039999999999999994
-0.2006519843784229 0.06 0.0
-0.22806385632140147 -1.1796119636642288e-16 0.0
0.438611990705585 -5.252150912499892e-05 0.04
0.41358849559293387 -0.06 0.04
0.4135884955929341 -0.06 0.0
0.4642419910175897 -0.06 0.0
0.4782715374234063 0.0302584611690398 0.019894876072988572
0.513903464641242 0.06 0.0
0.49049502097572617 0.000359712426279548 0.0
0.46424199101758934 0.06 0.0
0.46424199101758934 -0.06 0.04
-0.8164681441220105 0.022269284396602723 0.0
0.48912437490067595 -0.00041996788971368666 0.04
0.4642419910175897 0.06 0.04
-0.8353421249080566 0.06 0.04
0.8649535140731797 -0.02016838668923704 0.0
0.8973163514988121 0.02144006532192878 0.04
0.5625923446839085 0.06 0.04
0.6103276788742331 0.06 0.0
0.5943416245309461 0.018901239582525348 0.04
0.5790918012159274 0.021628695864523574 0.0
-0.593631917725493 -0.01946781888421301 0.04
-0.6103276788742336 -0.06 0.04
-0.6407079554435648 -0.019738458112036637 0.039999999999999994
-0.6264545933043166 -0.021459100211208025 0.0
-0.6103276788742331 -0.06 0.0
-0.6103276788742336 0.06 0.0
-0.6240641012293764 0.022292119262118645 0.04
-0.6414775595248179 0.020020515529780993 0.0
-0.5943416245309461 0.018901239582525348 0.0
-0.5790918012159274 0.021628695864523574 0.04000000000000001
-0.5625923446839077 0.06 0.04
-0.6103276788742331 0.06 0.04
-0.5625923446839085 0.06 0.0
-0.7325903506195701 -0.020274227246539274 0.039999999999999994
-0.7176321617908783 -0.019839353713154383 0.0
-0.7309057796957548 0.02177174945441851 0.0
-0.7736855084518748 0.020914979208800512 0.0
-0.7613659684934695 0.020945326906433456 0.04
-0.6571281419012174 0.06 0.04
-0.6719637381218919 0.02110482676547816 0.039999999999999994
-0.7030120427199952 0.06 0.04
-0.687851041884645 0.021313940245698455 0.0
-0.029521960903255984 -0.06 0.04
-0.05860957814939871 -6.938893903907228e-17 0.039999999999999994
-0.05860957814939863 5.898059818321144e-17 0.0
-0.08769719539554167 -0.06 0.0
-0.08769719539554144 -0.06 0.04
-0.2823507532564078 -5.204170427930421e-17 0.04
-0.25547572826437986 0.06 0.04
-0.25547572826438003 0.06 0.0
0.38751191920162714 6.938893903907228e-18 0.0
0.3352618020299945 -3.469446951953614e-18 0.0
0.36192316205531716 0.06 0.04
0.3619231620553172 0.06 0.0
-0.36192316205531716 0.06 0.0
-0.335244821032008 -1.1796296425746478e-06 0.0
-0.3352618020299945 -3.469446951953614e-18 0.039999999999999994
-0.38745316199969926 -7.894682722445895e-06 0.0
-0.3619231620553172 0.06 0.04
-0.3092257782484355 0.06 0.04
0.28235075325640757 5.551115123125783e-17 0.039999999999999994
0.30922577824843556 -0.06 0.0
0.335244821032008 -1.1796296425746478e-06 0.04
0.3092257782484355 -0.06 0.04
0.36192316205531716 -0.06 0.0
0.38745316199969926 -7.894682722445895e-06 0.04
0.3092257782484355 0.06 0.0
-0.38751191920162714 6.938893903907228e-18 0.04
-0.28235075325640757 5.551115123125783e-17 0.0
-0.30922577824843556 0.06 0.0
0.6103276788742336 -0.06 0.0
0.593631917725493 -0.01946781888421301 0.0
0.6264545933043166 -0.021459100211208025 0.04
0.4889627886584896 -0.027603176797077415 0.020155725176282127
0.583287522480325 -0.023728770665855194 0.039999999999999994
0.5450807564691462 -0.01715484187473429 0.0
0.5409244119327052 -0.005150142234760652 0.04
-0.48912437490067595 -0.00041996788971368666 0.0
0.3619231620553172 -0.06 0.04
-0.657128141901218 0.06 0.0
0.9600374798207896 -0.027590413451835553 0.0
1.0 0.0 0.04
0.9589620457797374 -0.028177574718636023 0.04
0.5625923446839077 -0.06 0.04
0.5625923446839085 -0.06 0.0
0.7766984080639845 -0.02052537972713625 0.0
-0.438611990705585 -5.252150912499892e-05 0.0
-0.583287522480325 -0.023728770665855194 0.0
-0.9600486361512215 0.06 0.0
-0.95349853104827 0.02147987272312249 0.0
-0.9192992165657539 0.06 0.0
-0.9192992165657531 0.06 0.04
-1.0 0.06 0.0
-0.14473309882269625 -0.06 0.04
-0.14473309882269605 -0.06 0.0
-0.11621514710911887 -1.214306433183765e-16 0.0
-0.17269254160055947 1.1796119636642288e-16 0.0
-0.14473309882269625 0.06 0.0
-0.11621514710911884 1.214306433183765e-16 0.039999999999999994
-0.8353421249080566 -0.06 0.0
-0.8353421249080575 -0.06 0.04
-0.8973163514988121 0.02144006532192878 0.0
-0.897529295217204 0.022569895749215793 0.04
0.11621514710911887 -1.214306433183765e-16 0.039999999999999994
0.05860957814939871 -6.938893903907228e-17 0.0
0.05860957814939863 5.898059818321144e-17 0.039999999999999994
0.08769719539554144 0.06 0.04
0.6103276788742336 0.06 0.04
0.5139034646412424 -0.06 0.0
0.9096368506350345 -0.020963842829632554 0.04
0.805541091654972 0.020469431563422978 0.0
0.8052789150181434 -0.019306901564895652 0.04
0.8203038938742353 -0.020636147377884773 0.0
0.08769719539554144 -0.06 0.0
0.08769719539554167 -0.06 0.04
0.9192992165657531 -0.06 0.04
0.8164681441220105 0.022269284396602723 0.039999999999999994
-0.9103536180674616 -0.021283841161765512 0.04000000000000001
-0.8777357995360431 -0.06 0.0
-0.9096368506350345 -0.020963842829632554 0.0
0.8570647961856006 -0.015388027432140593 0.04
0.7921016077200956 -0.06 0.04
0.8353421249080566 -0.06 0.04
0.7921016077200962 -0.06 0.0
0.4135884955929341 0.06 0.04
0.43891524330526177 8.673617379884035e-17 0.0
-0.7921016077200956 -0.06 0.0
-0.08769719539554144 0.06 0.0
0.14473309882269605 0.06 0.0
0.1726925416005594 -1.214306433183765e-16 0.0
0.11621514710911884 1.214306433183765e-16 0.0
-0.029521960903255984 0.06 0.0
0.0 0.0 0.0
0.17269254160055947 1.1796119636642288e-16 0.04
0.14473309882269625 0.06 0.04
0.0 0.0 0.04
0.2006519843784229 0.06 0.04
0.22806385632140147 -1.1796119636642288e-16 0.04
0.22806385632140147 1.0755285551056204e-16 0.0
-0.6720046167250797 -0.020579604775701428 0.0
-0.7030120427199962 -0.06 0.04
-0.7030120427199952 -0.06 0.0
0.25547572826438003 0.06 0.04
0.30922577824843556 0.06 0.04
0.25547572826437986 0.06 0.0
-0.02952196090325599 0.06 0.04
0.2006519843784232 -0.06 0.04
0.14473309882269605 -0.06 0.04
0.2006519843784229 -0.06 0.0
0.14473309882269625 -0.06 0.0
0.2823507532564078 -5.204170427930421e-17 0.0
-0.36192316205531716 -0.06 0.04
-0.41358849559293387 -0.06 0.0
0.5372746904547943 0.02439300391790418 0.0
0.5139034646412424 0.06 0.04
-0.5139034646412424 -0.06 0.04
0.41358849559293387 0.06 0.0
-0.7171469290115033 0.021165332718839136 0.04
-0.7479973317145417 0.06 0.04
-0.7030120427199962 0.06 0.0
0.08769719539554167 0.06 0.0
0.029521960903255984 -0.06 0.0
-0.02952196090325599 -0.06 0.0
0.02952196090325599 -0.06 0.04
0.02952196090325599 0.06 0.0
0.029521960903255984 0.06 0.04
-0.47805793986482265 0.03008719549728311 0.01940109733029794
-0.4642419910175897 0.06 0.0
0.6103276788742331 -0.06 0.04
1.0 -0.06 0.04
0.9600486361512205 -0.06 0.04
0.9600486361512215 -0.06 0.0
-0.3092257782484355 -0.06 0.0
0.877735799536044 -0.06 0.0
0.8777357995360431 -0.06 0.04
-0.41358849559293387 0.06 0.04
-0.4135884955929341 0.06 0.0
1.0 -0.06 0.0
1.0 0.0 0.0
-0.14473309882269605 0.06 0.04
-1.0 -0.06 0.0
-0.9600486361512215 -0.06 0.04
-1.0 -0.06 0.04
-0.7921016077200962 0.06 0.0
-0.9192992165657531 -0.06 0.0
-0.9600486361512205 -0.06 0.0
-0.7921016077200956 0.06 0.04
-0.7766984080639845 -0.02052537972713625 0.04
-0.5625923446839085 -0.06 0.04
-0.5625923446839077 -0.06 0.0
-0.877735799536044 -0.06 0.04
0.7921016077200962 0.06 0.04
-0.3619231620553172 -0.06 0.0
-0.7479973317145423 0.06 0.0
-0.8777357995360431 0.06 0.04
-0.4135884955929341 -0.06 0.04
-0.46424199101758934 -0.06 0.0
0.513903464641242 -0.06 0.04
-1.0 0.0 0.04
-0.877735799536044 0.06 0.0
-0.30922577824843556 -0.06 0.04
[...]
POINT_DATA 584
VECTORS displacement double
-0.010884226069962559 0.0027275849480683984 0.0466196496197933
0.01511654395403339 0.004958417607733867 0.01776675821472458
0.0009595340812435314 0.022534138985940436 0.02107942871016403
0.007750064783266396 0.016975748341708452 0.03561093050573275
0.009408926019755126 -0.016889503554272246 0.014953591952568611
0.002475435622083177 0.011978297001604648 0.0025320930267889756
0.013003736174627866 -0.003423860643276962 0.0032092556054830867
0.010115608402698225 0.012663444590285278 -0.001013741935995816
0.0046222065362416615 -0.014408666677238157 0.015747602121513334
0.003424666845578472 -0.0036585075824726665 0.010727836695822309
0.009344121902105899 0.010407470553889117 0.00021244795248658997
0.005685633302501787 -0.021562695315525758 0.015874327144718477
-0.0003768076160404961 -0.03820018197353747 0.034558882447054934
-0.00299948474530547 -0.00208970564380784 0.02841813995750262
0.0016005589219660083 0.0025623322329442707 0.015666762459079678
0.001007663514146036 -0.044773424626492316 0.030254822031477203
-0.019164191138341596 -0.025245738529299996 -0.025348239108189397
-0.00020905803929157255 -0.010358879453830207 -0.031360013325740045
-0.013730847809913687 0.018158689521422595 -0.02263672018022341
-0.019264439733167018 0.0055579668664508305 -0.02370904758116981
0.0019265964063390497 -0.06108266360925755 0.054119716012313385
8.025629147358104e-05 -0.04541508300344447 0.054083467326956666
0.0025366748546125804 0.01254997341829698 0.03891684975233556
0.012066761557465083 -0.017228904269194475 0.05952256961344134
-0.010705161677175922 -0.053362018275509786 0.041544180754033266
-0.009926537645429449 -0.050052525509819555 0.039484773012083016
-0.00960509748475564 -0.010424717014590681 0.04200166679960357
0.005507318532528445 0.0023997489816123684 -0.01565223842418003
0.0030163959296700665 -0.02246445733313291 -0.02897676553273416
0.005860195238995688 -0.029823293647046164 -0.02854011866246616
0.008568706780855459 -0.010566290830201828 -0.022744844288850416
-0.009350271231869316 -0.013512972994721118 -0.00012164297744585892
-0.007129112043538918 0.010147958269019547 0.01563901960631981
0.000533517615235426 0.011001430981646087 0.015404843016567946
0.0004753569080503768 -0.008630711032846483 0.009185223224346117
-0.010131366604532389 0.02984302717468781 -0.017303258843618746
-0.002005743619629968 0.016969710547519896 -0.014986397198738855
-0.018062310857548624 -0.0036294385330091572 -0.0173174016833688
0.004246840508135397 -0.001780905144598334 0.025489323329528944
0.0019130418783299106 2.6958827448454388e-05 0.022597436712440692
0.003416962229650369 0.009131410787535658 0.040266529387620806
0.009263420830507013 -0.004354541342707836 0.02336797950394353
-0.00038977887244199194 0.014151928119418317 0.038251802505307436
0.002995071523111741 0.022296387699702647 0.03822824332399293
0.004164964968140308 -0.0017672593133681433 0.04712848063150472
0.0059652355667996195 -0.03351398113698556 0.05567700077147031
0.003888414825733004 0.014722641642355198 -0.004462257593341182
0.003069110939902286 0.014393901870605465 -0.014939208697082705
-0.0059501548744098805 0.028799718341617604 -0.014705597509899422
-0.007743807771238905 2.7190626820868883e-05 0.0034476218643115838
-0.010501304132250852 -0.018601772221364422 0.02066009375529797
-0.0027261875445086492 -0.0365478569390061 0.024404252757406583
-0.011448000660369828 -0.028081192317461142 0.024744256072290523
-0.003771376903722499 -0.019153660566581653 0.030270492402153307
-0.0016747588429949576 0.00528771059897812 0.029516425115143033
0.0007943094855045402 0.008930267226275086 -0.015815419958978977
-0.00592852148319443 0.0101224273635366 -0.010246363064673521
0.010831939732954965 0.007149424081166315 -0.012990994162990412
0.0015323115256477247 -0.03243142375581189 -0.04357708138919607
-0.0022887721771029834 0.0343532727129275 -0.026968066134743954
0.0027965620391365766 0.00946609189512478 -0.0286247333824255
-0.008352819050266498 0.04243045886469819 -0.02880851787700525
0.0008581815610949206 0.013439657025027722 -0.043774891083677
-0.0029182497183995702 0.05774607259413369 -0.04979837549760357
0.000925205546750649 0.06055712580913275 -0.0480484191045795
0.005947805801213069 -0.009204387036017933 -0.05235852268669306
-0.002767526444669921 -0.005684705833949666 -0.046852814173589344
0.01250841629445339 -0.03626809887943108 -0.04180896713779909
-0.0033632034245308414 -0.0092551323853394 -0.04414664248196411
0.002086303772020456 0.005813860784928796 -0.040767875108095125
0.0030741891023700263 -0.025549409145361 -0.05749631585905654
-0.001857120548809098 -0.01822048050815804 -0.023490569397455426
-0.005645282733990467 -0.01050732557495698 -0.044042513228716745
0.011258065095227898 0.00962237473552484 -0.046262108190477755
-0.01732865014932766 -0.0020018189151082507 -0.01840348721624284
-0.02160483433957527 0.0009219053539410222 0.005275038765544702
-0.0032326076140194817 -0.022727420698462106 0.002185484680531485
0.011383795917024923 -0.014274355748041345 -0.03426840294090337
0.01889581167941859 0.02698396920420816 -0.0169234180648916
0.009228162968106628 0.013901056475909574 -0.01635801219695577
0.016160354226179955 -0.0036053257340546525 -0.02060915750106504
0.005643142154191702 -0.02255904474197592 0.006592056352483364
-0.008254116640081771 -0.018606854733440783 0.006606577039579205
0.012894328935063324 -0.010829234114064851 -0.009324256864425338
0.014671338635339143 -0.02680167287363772 -0.006873981069676801
-1.0244241583358006e-05 -0.0282695327236573 0.006119692621608078
-0.010008739970764962 -0.021930828179413293 -0.02385517090570493
0.003985462264546855 -0.007321304176323844 -0.017760353540424018
0.008913428714899859 -0.030994967070324196 -0.026314540673020907
0.005848063582302428 -0.025478836964728222 -0.002696526702930554
0.00042468290653218597 -0.014400662071745103 0.003121600168025493
-0.014691368206273644 -0.014637680510565536 0.003455389328698251
-0.017338976751910727 -0.004867131419047051 -0.026239359180795747
-0.006355724131532534 -0.019346390751140148 0.004482460483295288
0.0048239891645304725 0.013363928510064089 -0.029472087347032327
0.004647505408021169 -0.0034850474104724393 -0.030575584708859325
-0.005752190155519156 -0.0031334823639546077 -0.04033917066622971
0.0007184177965327427 -0.01186308468206906 -0.03182201671691172
0.001563903934862797 -0.0007182712068381371 -0.038531799010403545
-0.03111394605345114 -0.039407079228216235 -0.04656381543296821
-0.0025927305819043183 -0.02579171514172568 -0.034885479733779284
-0.036184212175806515 0.025146965750450372 -0.05590648355065035
-0.00559140853352718 -0.022378162792505728 -0.0374358840242995
-0.0010548173938826316 -0.004239100204106021 -0.0013100270361559355
0.0023380794124239403 0.009629872018433135 -0.0340123699107673
0.006033264858474429 -0.002882571367725608 -0.0326152721747812
0.005771643170123742 0.0022825529643372227 -0.02419779408066758
-0.0014533608875217257 0.012921522666837632 -0.02859569239460498
0.002171887228686577 -0.02319705570901916 -0.0013500447754958378
-0.012570754942512129 0.016331278878088787 8.527910429209876e-05
-0.016560005599041257 0.022186964925895548 0.002671813893475331
-0.010374675276419503 0.04681641093605958 -0.031421325989510494
-0.012815813888228805 -0.03506333116902791 -0.0069152072362738
-0.010878011491110774 -0.012286200638201334 -0.002072674599642517
-0.01886218978940976 0.002250026326174621 0.0006460861623769839
-0.014377445234928555 0.031795429195836986 0.05358408911078105
-0.004271819553588545 0.04621588870638488 0.023148326627633692
-0.0002683615404343969 0.03682822443575494 0.023046658696377915
-0.0009370913946022809 0.001646674774567128 0.03946879059469337
-0.014317467335814684 0.020253812139375934 0.05159515533803641
0.004533533337350971 0.0005958083420793228 0.03169313753487353
-0.0026180293188474706 0.03774102046160511 0.019696650746537592
-0.019633690354714947 0.004786455958469133 -0.010899564638836665
-0.0033918180321563236 -0.05264752422760261 -0.006690076943073456
-0.016436477074898044 -0.004233475483732078 -0.007159603301586338
0.005771844901821905 0.001273234382033898 -0.03984062227493526
-0.005969454932026636 0.03836868853043774 -0.02842715330306154
0.004181623517681171 0.008234042459319153 0.027458432823974463
0.0024342128506454172 -0.01423275251664574 0.040813833073235634
-0.005304335077964156 -0.005663860526558358 -0.002273015012450794
-0.0001958638114960497 0.01713130630094895 0.03245693723862594
0.011372692792935412 0.005822199215426103 0.013232629921639016
0.003046572318055109 0.0003238666050139136 -0.00473625965640369
-0.00454221000561861 0.015658569837738452 0.008892920719278023
-0.006711849105554801 -0.010159637925532384 -0.0470904177461848
-0.005200018152143503 0.003163287534877883 -0.011890597600059633
0.0062841106819152975 -0.02405563389261812 -0.030177044819026503
-0.00041103834000647763 -0.02463976170236602 -0.03040703896149973
0.006952992222487445 0.013854421421849181 0.03875922470440995
0.00923812506032017 -0.014088647331153439 -0.040302884790426714
-0.02459014854625456 -0.045093580164979934 -0.04127905069291583
-0.012227274626900313 0.0328230820767336 -0.0361737406525976
-0.004020989977708811 0.009593709120542927 -0.03166150945782366
-0.00824243643041706 0.02013964721971315 -0.03553516834688582
0.0050563795673876505 -0.015678676521602066 -0.015536212496666927
0.014765835554618948 -0.02256135027502906 -0.01319707147097035
-0.013957877029298706 -0.004589893234797694 0.039196145171384415
0.004328961184310711 0.004392109144197438 0.044886218336618613
0.010422817691191593 -0.024507706860246163 0.008707287805328942
-0.05120427663004167 0.03281586432615719 0.04636612592055979
-0.008965453904092814 0.02630181349052741 0.032108570507526045
-0.04224744137613953 0.008948435926189414 0.0276448395443779
-0.04226160908769696 -0.008252509866916427 0.021431748342960886
-0.04336495647855012 -0.03828315250302724 0.06145620951780201
0.0030629477618996574 -0.029766934502442235 -0.04224984766507534
0.007309722065308555 -0.02762594375842471 -0.04618675108637182
0.0008216186529197777 -0.004756137024766419 -0.04574126800483151
-0.0014209908509219653 -0.027812844044017754 -0.04272089583795633
-0.007964075968836875 -0.02518503687370165 -0.050115310332916045
0.0018355053142251946 0.0035640458417423274 -0.04671562121042051
-0.03361643559817004 0.004123837626676165 -0.02084756854903649
-0.026818691972852995 0.004656280923066836 -0.02325620008906541
-0.003601010266208355 0.01841214616338076 0.004395238502704203
0.011214631791293018 0.009216274570715109 0.005095049657759124
0.00042256964856870625 0.016392834604907897 0.03902453423156741
0.006584361827804931 -0.028995461784994167 0.0176039805076914
0.0011173126763356343 -0.016139853005125677 0.018271538697109093
0.0002572183302320048 0.0027540361278936185 0.01391366451229616
0.009532089942378951 0.047127531580608034 -0.018229257367687945
0.006635304640527687 -0.006877939486105873 -0.039465766952072004
-0.009575481523024206 -0.020636017494910716 -0.012826075477774278
-0.007677983925251195 0.019819224796813077 0.024780251203099256
-0.008993427174018803 0.027152371668640488 0.029514424699334584
-0.0171941323909351 0.01877884985412572 0.02579077798234259
0.008465670877663421 -0.006891775802333325 0.04347752939159741
0.002830526324130877 0.005595527162136021 0.04594988521727606
0.017169245754183708 0.004639988401500411 -0.03388150416649597
-0.0019232763525300254 0.02713185948817077 0.022661048950518327
0.01596145511135355 0.012816902700354833 0.0008465061878482097
-0.03856698433344564 0.0076916407984288174 -0.012164147807382272
0.003963434309795071 0.021755913750907203 0.001674281591481727
-0.012926756107507627 -0.003591557323544195 0.01009053891318317
0.01439104909810614 0.02021202273963244 0.045624754938952905
0.004922345518130513 0.006674212222240605 0.018102420212596743
0.0013871578236783297 0.011447475528626705 0.045623757475958725
0.007391071974726354 0.03273019740572064 -0.02579238699425093
-0.006333203930675356 0.01873887041095324 -0.04731286197221632
-0.027321313459552857 -0.02629991622466887 -0.026982406578603197
0.0013716198168117017 0.000758183056162866 -0.05507596432210508
0.012439292930548561 -0.002668457755212997 0.03768013191320579
-0.0013979462404402742 -0.02273283836318446 0.04646865141437948
0.004475925088693196 0.007778251513845851 0.03731608070793558
0.009293933617551235 -0.016094824584318938 -0.04098986413392339
0.0073556072121201506 -0.030978682021819037 -0.009055660872455582
-0.002981253664212424 -0.022312209791785307 0.04702197592785486
0.012890043416027324 0.0027089505596278674 0.035756629133676374
0.0029113201957460355 -0.017122745059448725 -0.009604865589491949
0.005691537650944934 -0.01925004136949848 0.050283659020059185
0.0012507448412281373 0.0021625762353993136 0.038769137080731604
-0.002447220428720203 0.010862691744017093 0.04179623470540962
0.008894886831699419 -0.011127516384923911 -0.023762820101823817
-0.012717553750632658 0.004829692235218759 -0.01730966296489602
-0.015361084492472253 -0.005830551889328026 -0.017053189426935584
0.0025371649490845854 0.049521776672140076 0.04421378158819808
0.01346231089444645 0.0009880793143774871 0.023885612201124704
-0.008667307688058892 0.05380387690434555 0.046534278023850274
0.005261917471771141 -0.0011300238498300223 -0.04331064231100457
-0.0009383506197687719 -0.010695681788003454 0.04077466390071031
-0.010853669741730958 -0.002793421439720904 0.05379592428068677
0.0018621861293933316 -0.009514078029992885 0.04341965259123286
-0.005321380531534258 -0.007564812847504726 0.051122271645855255
-0.010446551204367122 0.04833310662375955 0.020613402248339328
0.0059687439889728085 0.014792924978245066 0.014043880002675707
-0.003614813624335508 -0.0025172391248435995 0.026606192226536485
0.011987977016356725 -0.03353602697699699 -0.03599459900045561
0.012820627908431756 -0.03785221604816854 -0.04049560841495747
0.0025713742107645703 0.005466488662280288 0.03317310796170016
0.0001803862285558215 0.045448865955834195 -0.022521591036890103
-0.003097030913270883 -0.007840186141977939 -0.04192385506612454
-0.02020482741726827 0.02677368257675788 -0.04761103578360042
-0.02978378370798325 -0.0027704275642206487 -0.05195878951568557
0.005393326373809298 -0.009641118219926848 0.014616456663434935
0.006998065351093032 -0.036750603368171195 0.02544602011571608
0.004409252548056553 -0.018264770024130888 -0.0003376447305046083
0.0003674994707078555 -0.023332151656845875 0.02651506318364704
0.009112371381700539 -0.034038747200660906 -0.015504658947644516
0.003877236524830483 -0.02119914733040014 -0.01672393519601652
-0.000627188043511725 0.013286398737739059 0.04490615300077318
-0.0016097714817652424 0.013140366074747173 0.05173076502226195
0.0018262791545811373 0.021215644254798834 0.01306258620285872
0.0004885382741216945 0.028431173117344857 -0.04742043793573988
0.009035556083234818 0.005684625898285082 -0.05035636668308139
0.0016987959462920856 0.028266002922603343 -0.04910198505910899
-0.017451475572418967 0.022400829749526452 -0.010359143592698749
-0.006105356952642643 0.001068434247442483 -0.0045828622147304965
0.005994824638399792 -0.002336671541004837 -0.003491249596580274
-0.006196253298681954 -0.012731347842100092 0.05808145310356138
-0.0030193300686360033 -0.0006955378989628061 0.060681877587635255
-0.0040187889624872354 0.0399292284669589 -0.053065099561954675
-0.013552951708695127 0.025553151336541496 -0.034610673105427155
-0.008150277010379722 -0.025276187550322158 -0.05152073770870502
-0.01603075224174762 0.05758277207902544 0.030780664946952266
-0.0286760888043088 -0.03856686872706946 -0.004499299961789491
-0.016132910376465363 0.0677595768979871 0.020593399195650217
-0.02850902155328555 -0.018904344442610837 -0.028098581372975027
-0.04541811828823194 0.03227337484279861 -0.0033745158655732878
-0.03125716943251527 0.0071642196744715735 0.014258762552641968
-0.021341982767874627 -0.01156378046962741 -0.03371996320192186
0.004836639664471142 -0.016831915892855587 -0.029482064712498698
-0.0011955900027474195 0.0012224953685666732 0.028741496617302183
0.005210196991949157 -0.00969290360121416 0.022643195258369872
-0.028617783406291224 -0.0036416416936716394 -0.014025365179652166
-0.01058477349247001 0.024338575422984562 0.021073312974255045
-0.0007507939704588534 0.028501701596173837 0.011434224323117761
-0.027657867707697632 0.011490025466222903 -0.044999719302065685
-0.02592645574710828 0.016036809136618493 -0.0028662438735213573
0.0018442354892542422 -0.012787022725587198 0.032042963257491376
-0.0004980817240077545 0.021415271257803237 0.0382012105758789
-0.0014263586736464578 0.0010737376769666728 -0.037261698361773794
0.011595990310485029 -0.023639727406674475 0.06819532375564148
-0.035925336713188365 0.01725718868997663 0.002569912752642103
-0.00996128034059547 0.004791346021562631 -0.006787512177199951
0.0011824114764978975 -0.0002983058349217277 -0.03186252502431652
0.0005036176578638329 0.011668637909345003 -0.05632449249633692
0.0009607559012774823 0.03602592954990899 0.020587079681537602
-0.0027643691111883134 0.014943499421188899 -0.03750933274241218
-0.03729744860606375 0.05094262577993369 0.039784484288155716
-0.04614001587332947 0.02835763937331111 -0.009214846601728353
-0.0041335149808028 0.0063129222000262 0.031394655501702215
0.005449151581938805 0.009210861601623582 -0.02236372205260514
-0.005640627832633794 0.029118743677628126 -0.0051474879375360445
-0.018282875294874303 -0.05550102596808995 0.06019758456056204
-0.009855034451015479 0.011146707326148152 0.03056436776706154
-0.005839678758746443 0.010475294417664456 0.04896091744209277
-0.009536945610955024 -0.006439993130851297 -0.008933692456659982
0.014133191672105338 -0.02111451994393893 0.014253724008849075
0.003621294641913156 -0.010830134604303194 0.0063390803942314925
0.00114055536313337 0.029691676738825945 0.02157429654118907
-0.007550975205063445 0.008438908592962067 0.018719424232986316
0.003156040380534319 0.0030549947559489607 0.03506249195724513
0.004560321440296909 0.007493360509248335 -0.030180504900255013
-0.027042305738933365 -0.0014643653891076769 -0.01538100171866761
-0.008104677215582959 0.006373276927108491 0.011478204921381654
-0.0006460368902436038 0.00238793465494931 0.019379170315384504
-0.016177415061459616 0.01729541254757358 0.02047795206361173
0.0008345845233726995 0.007087669726110629 -0.028294662863084446
0.01392074681342548 -0.019017140284984885 -0.031614965478376084
-0.013590964802269843 0.00933360342120635 -0.006211179644150488
0.007319996804196389 -0.006580829784042673 0.03934389375413286
-0.015617303345540687 0.021667592580937218 -0.04798067066767234
-0.012228735688038048 0.02313071945317026 -0.04536613002128764
0.0003347003522777899 -0.015758456296458456 0.04967341344033814
-0.017220891956606435 -0.0035947925669703915 -0.0018488028334729257
0.029509040998615454 -0.044146397679974025 0.027185447144788755
-0.004530293594572686 -0.05595958848047711 0.00894234546354526
0.0051174503328741345 -0.011568451619288185 -0.02202168412648261
-0.0013032023992341655 0.028042201859456238 0.03943561259457407
0.007895186681592727 -0.023276333706201316 -0.028728225323890553
0.006032682063873817 0.007949702249523845 -0.012710225096947627
0.0089907484866033 -0.011389269789799652 -0.028186572725772376
-0.009408822710938788 -0.0025193274024933178 -0.04544031263498184
0.0028568951056918046 0.027501103115521366 -0.027015110282383188
-0.0009397832346902468 -0.004011928016714922 0.001789343356071403
-0.001483613208624092 -0.0045110930902879974 0.008732415014811692
0.0018854211608714505 0.014831233130856453 -0.020410181021869884
0.020189557822088318 0.003761751785277737 0.02838522348745003
0.025847198911231856 0.047977852442171585 0.03426118236900936
0.052147524203001915 -0.04716339097480918 0.036208956634296206
-0.01892825959323441 0.011155552416490681 -0.014761771820307105
0.00705233119235319 -0.008571755595998735 -0.008964200927343796
-0.004971821173951128 -0.03140508315735554 0.032701416389431186