# vtk DataFile Version 2.0
Really cool data
ASCII
DATASET UNSTRUCTURED_GRID
POINTS 584 double
-1.0 0.0 0.0
-0.9600374798207896 -0.027590413451835553 0.04
-0.9589620457797374 -0.028177574718636023 0.0
-0.9553815213922792 0.019675326217199102 0.04
0.6719637381218919 0.02110482676547816 0.0
0.6414775595248179 0.020020515529780993 0.04
0.6571281419012174 0.06 0.0
0.6240641012293764 0.022292119262118645 0.0
0.687851041884645 0.021313940245698455 0.04
0.7030120427199962 0.06 0.04
0.657128141901218 0.06 0.04
0.7030120427199952 0.06 0.0
0.6885310613992013 -0.0196061899732657 0.0
0.6720046167250797 -0.020579604775701428 0.04
0.6407079554435648 -0.019738458112036637 0.0
0.7171469290115033 0.021165332718839136 0.0
-0.7921016077200962 -0.06 0.04
-0.7604373514312079 -0.019298436119384588 0.0
-0.7479973317145423 -0.06 0.04
-0.7479973317145417 -0.06 0.0
0.7030120427199962 -0.06 0.0
0.7030120427199952 -0.06 0.04
0.6571281419012174 -0.06 0.04
0.7479973317145417 -0.06 0.04
0.7325903506195701 -0.020274227246539274 0.0
0.7176321617908783 -0.019839353713154383 0.04
0.7604373514312079 -0.019298436119384588 0.04
-0.8488906624897727 0.019856366527450334 0.04000000000000001
-0.8052789150181434 -0.019306901564895652 0.0
-0.805541091654972 0.020469431563422978 0.04000000000000001
-0.8203038938742353 -0.020636147377884773 0.04
0.897529295217204 0.022569895749215793 0.0
0.8488906624897727 0.019856366527450334 0.0
0.8569454102823642 0.029774901726562965 0.04
0.8777357995360431 0.06 0.0
0.9553815213922792 0.019675326217199102 0.0
0.95349853104827 0.02147987272312249 0.04
0.9103536180674616 -0.021283841161765512 0.0
-0.5450807564691462 -0.01715484187473429 0.04000000000000001
-0.5372746904547943 0.02439300391790418 0.04
-0.49049502097572617 0.000359712426279548 0.04000000000000001
-0.5409244119327052 -0.005150142234760652 0.0
-0.48901428549955095 -0.02776609156780287 0.019771763033692314
-0.4642419910175897 -0.06 0.04
-0.43891524330526177 8.673617379884035e-17 0.04000000000000001
0.7479973317145423 -0.06 0.0
0.9600486361512215 0.06 0.04
1.0 0.06 0.04
1.0 0.06 0.0
0.9192992165657531 0.06 0.0
0.7479973317145423 0.06 0.04
0.7309057796957548 0.02177174945441851 0.039999999999999994
0.7479973317145417 0.06 0.0
0.7613659684934695 0.020945326906433456 0.0
0.7736855084518748 0.020914979208800512 0.04
-0.8570647961856006 -0.015388027432140593 0.0
-0.8569454102823642 0.029774901726562965 0.0
-0.8649535140731797 -0.02016838668923704 0.039999999999999994
-0.1726925416005594 -1.214306433183765e-16 0.039999999999999994
-0.22806385632140147 1.0755285551056204e-16 0.039999999999999994
-0.2006519843784229 0.06 0.0
-0.22806385632140147 -1.1796119636642288e-16 0.0
0.438611990705585 -5.252150912499892e-05 0.04
0.41358849559293387 -0.06 0.04
0.4135884955929341 -0.06 0.0
0.4642419910175897 -0.06 0.0
0.4782715374234063 0.0302584611690398 0.019894876072988572
0.513903464641242 0.06 0.0
0.49049502097572617 0.000359712426279548 0.0
0.46424199101758934 0.06 0.0
0.46424199101758934 -0.06 0.04
-0.8164681441220105 0.022269284396602723 0.0
0.48912437490067595 -0.00041996788971368666 0.04
0.4642419910175897 0.06 0.04
-0.8353421249080566 0.06 0.04
0.8649535140731797 -0.02016838668923704 0.0
0.8973163514988121 0.02144006532192878 0.04
0.5625923446839085 0.06 0.04
0.6103276788742331 0.06 0.0
0.5943416245309461 0.018901239582525348 0.04
0.5790918012159274 0.021628695864523574 0.0
-0.593631917725493 -0.01946781888421301 0.04
-0.6103276788742336 -0.06 0.04
-0.6407079554435648 -0.019738458112036637 0.039999999999999994
-0.6264545933043166 -0.021459100211208025 0.0
-0.6103276788742331 -0.06 0.0
-0.6103276788742336 0.06 0.0
-0.6240641012293764 0.022292119262118645 0.04
-0.6414775595248179 0.020020515529780993 0.0
-0.5943416245309461 0.018901239582525348 0.0
-0.5790918012159274 0.021628695864523574 0.04000000000000001
-0.5625923446839077 0.06 0.04
-0.6103276788742331 0.06 0.04
-0.5625923446839085 0.06 0.0
-0.7325903506195701 -0.020274227246539274 0.039999999999999994
-0.7176321617908783 -0.019839353713154383 0.0
-0.7309057796957548 0.02177174945441851 0.0
-0.7736855084518748 0.020914979208800512 0.0
-0.7613659684934695 0.020945326906433456 0.04
-0.6571281419012174 0.06 0.04
-0.6719637381218919 0.02110482676547816 0.039999999999999994
-0.7030120427199952 0.06 0.04
-0.687851041884645 0.021313940245698455 0.0
-0.029521960903255984 -0.06 0.04
-0.05860957814939871 -6.938893903907228e-17 0.039999999999999994
-0.05860957814939863 5.898059818321144e-17 0.0
-0.08769719539554167 -0.06 0.0
-0.08769719539554144 -0.06 0.04
-0.2823507532564078 -5.204170427930421e-17 0.04
-0.25547572826437986 0.06 0.04
-0.25547572826438003 0.06 0.0
0.38751191920162714 6.938893903907228e-18 0.0
0.3352618020299945 -3.469446951953614e-18 0.0
0.36192316205531716 0.06 0.04
0.3619231620553172 0.06 0.0
-0.36192316205531716 0.06 0.0
-0.335244821032008 -1.1796296425746478e-06 0.0
-0.3352618020299945 -3.469446951953614e-18 0.039999999999999994
-0.38745316199969926 -7.894682722445895e-06 0.0
-0.3619231620553172 0.06 0.04
-0.3092257782484355 0.06 0.04
0.28235075325640757 5.551115123125783e-17 0.039999999999999994
0.30922577824843556 -0.06 0.0
0.335244821032008 -1.1796296425746478e-06 0.04
0.3092257782484355 -0.06 0.04
0.36192316205531716 -0.06 0.0
0.38745316199969926 -7.894682722445895e-06 0.04
0.3092257782484355 0.06 0.0
-0.38751191920162714 6.938893903907228e-18 0.04
-0.28235075325640757 5.551115123125783e-17 0.0
-0.30922577824843556 0.06 0.0
0.6103276788742336 -0.06 0.0
0.593631917725493 -0.01946781888421301 0.0
0.6264545933043166 -0.021459100211208025 0.04
0.4889627886584896 -0.027603176797077415 0.020155725176282127
0.583287522480325 -0.023728770665855194 0.039999999999999994
0.5450807564691462 -0.01715484187473429 0.0
0.5409244119327052 -0.005150142234760652 0.04
-0.48912437490067595 -0.00041996788971368666 0.0
0.3619231620553172 -0.06 0.04
-0.657128141901218 0.06 0.0
0.9600374798207896 -0.027590413451835553 0.0
1.0 0.0 0.04
0.9589620457797374 -0.028177574718636023 0.04
0.5625923446839077 -0.06 0.04
0.5625923446839085 -0.06 0.0
0.7766984080639845 -0.02052537972713625 0.0
-0.438611990705585 -5.252150912499892e-05 0.0
-0.583287522480325 -0.023728770665855194 0.0
-0.9600486361512215 0.06 0.0
-0.95349853104827 0.02147987272312249 0.0
-0.9192992165657539 0.06 0.0
-0.9192992165657531 0.06 0.04
-1.0 0.06 0.0
-0.14473309882269625 -0.06 0.04
-0.14473309882269605 -0.06 0.0
-0.11621514710911887 -1.214306433183765e-16 0.0
-0.17269254160055947 1.1796119636642288e-16 0.0
-0.14473309882269625 0.06 0.0
-0.11621514710911884 1.214306433183765e-16 0.039999999999999994
-0.8353421249080566 -0.06 0.0
-0.8353421249080575 -0.06 0.04
-0.8973163514988121 0.02144006532192878 0.0
-0.897529295217204 0.022569895749215793 0.04
0.11621514710911887 -1.214306433183765e-16 0.039999999999999994
0.05860957814939871 -6.938893903907228e-17 0.0
0.05860957814939863 5.898059818321144e-17 0.039999999999999994
0.08769719539554144 0.06 0.04
0.6103276788742336 0.06 0.04
0.5139034646412424 -0.06 0.0
0.9096368506350345 -0.020963842829632554 0.04
0.805541091654972 0.020469431563422978 0.0
0.8052789150181434 -0.019306901564895652 0.04
0.8203038938742353 -0.020636147377884773 0.0
0.08769719539554144 -0.06 0.0
0.08769719539554167 -0.06 0.04
0.9192992165657531 -0.06 0.04
0.8164681441220105 0.022269284396602723 0.039999999999999994
-0.9103536180674616 -0.021283841161765512 0.04000000000000001
-0.8777357995360431 -0.06 0.0
-0.9096368506350345 -0.020963842829632554 0.0
0.8570647961856006 -0.015388027432140593 0.04
0.7921016077200956 -0.06 0.04
0.8353421249080566 -0.06 0.04
0.7921016077200962 -0.06 0.0
0.4135884955929341 0.06 0.04
0.43891524330526177 8.673617379884035e-17 0.0
-0.7921016077200956 -0.06 0.0
-0.08769719539554144 0.06 0.0
0.14473309882269605 0.06 0.0
0.1726925416005594 -1.214306433183765e-16 0.0
0.11621514710911884 1.214306433183765e-16 0.0
-0.029521960903255984 0.06 0.0
0.0 0.0 0.0
0.17269254160055947 1.1796119636642288e-16 0.04
0.14473309882269625 0.06 0.04
0.0 0.0 0.04
0.2006519843784229 0.06 0.04
0.22806385632140147 -1.1796119636642288e-16 0.04
0.22806385632140147 1.0755285551056204e-16 0.0
-0.6720046167250797 -0.020579604775701428 0.0
-0.7030120427199962 -0.06 0.04
-0.7030120427199952 -0.06 0.0
0.25547572826438003 0.06 0.04
0.30922577824843556 0.06 0.04
0.25547572826437986 0.06 0.0
-0.02952196090325599 0.06 0.04
0.2006519843784232 -0.06 0.04
0.14473309882269605 -0.06 0.04
0.2006519843784229 -0.06 0.0
0.14473309882269625 -0.06 0.0
0.2823507532564078 -5.204170427930421e-17 0.0
-0.36192316205531716 -0.06 0.04
-0.41358849559293387 -0.06 0.0
0.5372746904547943 0.02439300391790418 0.0
0.5139034646412424 0.06 0.04
-0.5139034646412424 -0.06 0.04
0.41358849559293387 0.06 0.0
-0.7171469290115033 0.021165332718839136 0.04
-0.7479973317145417 0.06 0.04
-0.7030120427199962 0.06 0.0
0.08769719539554167 0.06 0.0
0.029521960903255984 -0.06 0.0
-0.02952196090325599 -0.06 0.0
0.02952196090325599 -0.06 0.04
0.02952196090325599 0.06 0.0
0.029521960903255984 0.06 0.04
-0.47805793986482265 0.03008719549728311 0.01940109733029794
-0.4642419910175897 0.06 0.0
0.6103276788742331 -0.06 0.04
1.0 -0.06 0.04
0.9600486361512205 -0.06 0.04
0.9600486361512215 -0.06 0.0
-0.3092257782484355 -0.06 0.0
0.877735799536044 -0.06 0.0
0.8777357995360431 -0.06 0.04
-0.41358849559293387 0.06 0.04
-0.4135884955929341 0.06 0.0
1.0 -0.06 0.0
1.0 0.0 0.0
-0.14473309882269605 0.06 0.04
-1.0 -0.06 0.0
-0.9600486361512215 -0.06 0.04
-1.0 -0.06 0.04
-0.7921016077200962 0.06 0.0
-0.9192992165657531 -0.06 0.0
-0.9600486361512205 -0.06 0.0
-0.7921016077200956 0.06 0.04
-0.7766984080639845 -0.02052537972713625 0.04
-0.5625923446839085 -0.06 0.04
-0.5625923446839077 -0.06 0.0
-0.877735799536044 -0.06 0.04
0.7921016077200962 0.06 0.04
-0.3619231620553172 -0.06 0.0
-0.7479973317145423 0.06 0.0
-0.8777357995360431 0.06 0.04
-0.4135884955929341 -0.06 0.04
-0.46424199101758934 -0.06 0.0
0.513903464641242 -0.06 0.04
-1.0 0.0 0.04
-0.877735799536044 0.06 0.0
-0.30922577824843556 -0.06 0.04
[...]
POINT_DATA 584
VECTORS displacement double
-0.0018477447272363238 0.009514733486602305 0.0034214100883080724
0.0002882520993901096 0.010691871511136675 -0.00018889823370229136
0.002978159575097304 0.012513265540804064 0.0007558353201802447
-0.009915727491791473 0.004503757081118192 0.008180289191381489
-0.001831622359962922 -0.0032222780483595996 -0.0025254276377659644
-0.00189496741916883 -0.0009655908379013305 -0.002626053250087952
0.0036393612230100785 -0.003204377045631449 -0.004139304578938734
-0.001358223762252875 -0.0025552362274772807 -0.0032145331767763725
-0.0017242781758591158 -0.0021609167305779962 -0.0018907560282909425
0.0025026312311708598 -0.0021039574838514962 -0.002414167671650816
0.003204870935984672 -0.0028745169140525456 -0.0041501942310680304
0.0029967045753327994 -0.0028314113116184045 -0.0030221228978798715
-0.0037180642454410586 -0.002084710179567214 -0.0012830287609008775
-0.00427646194486728 -0.001258885292058358 -0.0011134155771960477
-0.0044799571936421385 -0.003630649152947901 -0.0018762062825139433
-0.0013843590171487047 -0.0017814896787234323 -0.0018634077666449787
0.022054284533963055 0.012949363065148824 -0.0028453879769013406
0.010275242848372388 -0.006664138579628112 -0.0016147721665435721
0.02315836213647203 -0.018984460551448173 0.001096135449114255
0.023383007259771965 -0.014024729838154072 -0.0009968019595494723
-0.0065486827498239175 -0.0017724479168344826 -0.00018002919025538537
-0.006675788535713452 -0.0010848437283268143 -7.765010427966462e-05
-0.007506818804550388 0.00043155400885465893 -0.00018582033766507028
-0.007085843287164831 -0.001207402935071556 -5.3528171876313874e-05
-0.0035503821802662454 -0.001543333019662977 -0.0006786979675780843
-0.0037831537965111843 -0.0006512614440017508 -0.0008561167544521125
-0.003768930341503942 -0.001124556590742089 -0.0006017542727678443
-0.002335048390242299 -0.005948968184150283 0.001217921070923579
0.004861034878235871 0.005162483507975886 -0.001915499556365229
-0.0002792354967173384 0.0056710102017879 -0.0019422099420188096
0.004386556144723458 0.002537732331891841 -0.0008759159342399902
-0.0011012720161135182 -0.0013642251084274603 0.0006561991909070692
-0.0012519196821633785 -0.0019496294459890608 5.912927191897757e-07
-0.0013085571141227992 -0.0008272383061226298 1.3293801367489555e-05
0.002721571331031996 -0.001953601951637775 -0.00021144328011145572
-0.0018921632324137637 -0.0036061224721393188 0.0011235918741537398
-0.0020532664181443774 -0.0034928168100419525 0.0011239151939687897
-0.0033028837757120687 -0.001743579735450257 0.0011216583254792477
0.003242508138631114 -0.005415633892115495 -0.0018533457034619703
0.005531489156343862 -0.0023821479029405637 -0.0033433670428665878
-0.0008791762855328559 -0.0057517225593506005 -0.0021606741982498454
0.0004336167816102774 -0.005925675379873479 -0.002449210965952217
0.006340856500255092 -0.008265016800559239 -0.001069958127823232
0.012304580271726095 -0.0017219684918099861 -0.0030811335235645283
0.0029623797769226137 0.01663981665269892 -0.00040251283047699316
-0.006607362296118835 -0.0016926157825480808 1.0694056738779163e-05
0.002207090446914825 -0.0035980973999436296 0.0010638671420557615
0.001982819722585025 -0.005925338628028649 0.0016579829544067731
0.0023615234265447664 -0.005918630326720943 0.0015322706355565977
0.002631525197282633 -0.0013545699752712382 0.0006050144403942042
0.0017257097798743062 0.00074591581974188 -0.0019420860198699139
-0.0015968740511723585 -0.00037621432976325776 -0.0014734107618134499
0.002473959883243405 -0.0005403780141719065 -0.002352941976548811
-0.0017940371671059732 -0.0012846999735267597 -0.0012168439584448352
-0.002300358322996032 -0.0009236803251856746 -0.0010478784653757138
-0.0004129367618476387 -0.0005776177081739868 -0.00024243736364802824
-0.0057004258598351105 -0.006399821258761959 -8.479050787567395e-05
-2.747490192614735e-06 -0.001014528622292149 -0.00019030170337433627
0.03307055187533621 -0.0447112228388972 0.002001213102599133
-0.02498634139967249 0.013395147350653107 0.0007811010983137479
-0.0023019989633891384 -0.0871769725325559 -0.0014802723550153421
-0.020651075723751782 0.0132184521696489 -0.0034205595713771107
-0.004474440394868793 -0.015894218637443093 -0.0028692609616864013
-0.010843092172998645 -0.020403299350486473 -0.002845002667659479
-0.014305698566649967 -0.015197016856048797 -0.00389443949850408
-0.008479051847271138 0.008727385892493892 -0.004579349189629885
-0.00674464065029425 0.009346481806757814 -0.0004168223035731554
-0.002433414413214896 -0.005551675733650338 -8.959485530683994e-05
-0.0034523197455703057 0.01051321946353627 -0.0014716199139844296
-0.006234673415207683 0.006733193439859774 -0.0010791068264997608
-0.005998322096729427 0.015023600002216551 -0.0007766754213072666
-0.004600659086206509 -0.0006543287086477926 -0.0029707688340749553
-0.004663141744651173 0.008401158636522642 -0.0013066891094398543
-0.003931171076216148 0.01610248177772051 -0.003459318282720897
-0.005141759394345689 -0.004972269796420145 -2.830917820081679e-05
-0.0029097426750428106 -0.0020960362006718757 0.0006379232286570215
-0.0018909555673377976 -0.0011439450145198783 0.0004963155075663646
-0.004062275725782909 0.008466028878531345 -0.002157794726015099
0.0001742169355459308 -0.005559124610881486 -0.0037039053430826677
-0.004573111766201801 0.005850914508870443 -0.002810497315373332
-0.0032290948092140574 0.004655811187230147 -0.0022151241546333944
-0.004229338636879907 0.001979232620218273 0.000627124865977291
0.00994949632932029 -0.004443947193182792 0.00457456195224862
-0.004811650090901156 -0.012915045566521474 -0.003050411398030123
-0.0048070233086302235 -0.010128488621827624 0.0021119287538448476
0.00835072819000299 -0.006382665613593774 0.004521168505355766
0.009599299757903364 -0.01302301218879686 -0.012311220488274901
-0.0030027530423275112 0.004231810134059148 -0.0033468503785216972
-0.0011461443060660065 -0.0003595353247497995 -0.0025074745958671694
-0.0008064816767494224 -0.009757799617317157 -0.0033874701862094737
0.0018106550206142059 -0.0072796721374779935 -0.0002304631656919938
0.005473812615632609 -0.02194159550809544 -0.0022451409253672777
0.008744226040037018 -0.01987956162986834 -0.002087877146049897
0.010979159099860586 -0.019101017401273648 -0.00912017539361334
0.004507944213711423 0.0026336847989808067 -0.004723517532312234
0.004568901040898335 0.0024107550603303766 0.002501486911076633
-0.00017096071587848077 0.004677560186072994 -0.005141625460451241
-0.0015248340255671936 -0.0007767863729033782 -0.0069032281611476915
-0.002027170830577397 0.007674708865846324 -0.005044936182819452
0.0138396010593099 0.01679913115948515 -0.008491188659082249
0.007014423640031464 0.01932292181804103 -0.003851607032473029
0.015164008732966831 -0.03941943954068926 -0.004878317569062175
0.006178546412402504 0.0014634827528458266 -0.007047033967127664
0.007360680358030338 -0.26115709701607387 0.008719801312385658
0.04324218548225578 -0.011556621882477558 -0.0010309691707912202
0.056919982296864735 -0.010975650516388541 0.013839092826898883
0.028361765812910833 0.15653759030951842 0.013027403642603621
0.008219880830344391 0.1884979881470228 0.009639513464899989
0.019253423282056984 0.0014198966468798443 -0.007479279572091912
-0.0056396537562896035 0.08013832722090153 -0.012085941950433523
-0.014065166304033656 0.061500294243453206 -0.0033260041417854246
-0.002636902749494115 0.010069136771742015 -0.001801030617528563
-0.007788996194772727 -0.015177695547292978 0.0009803406400195839
-0.008241419064524181 0.0010669871629779752 -0.0025769739279890864
-0.00999812973477518 -0.0002408235477468712 -0.0010525635969495207
-0.004874026936282634 0.007884298083839196 0.002039016014762294
-0.011757490674949755 -0.0008998416606077171 -0.007995995027577188
-0.007069284740682789 -0.008477073255064806 0.00038949543873792854
0.004833618006542172 -0.00305507954498207 -0.0015059471581516772
-0.0031213837067390485 0.009852133670521032 -0.002297165646995793
0.0020717087071002232 -0.037148881034630404 0.0016215844014177932
0.006966715332595622 -0.002118419624568905 0.00019615637526725416
-0.011241623870918224 -0.03724402972357142 -0.00035220921761545867
-0.00856840490077183 -0.02008741736784555 -0.00266159034856233
-0.01208875915491128 -0.04822213368138875 -0.004386372613024503
-0.0066386581659267484 0.021773397423603204 -0.00013627602849951382
0.0013944061005191116 0.013893246086754091 0.0004899187368382174
0.0008189167316646356 0.007246708871810231 -0.00023446612544198011
0.0028624388312615506 -0.005477438837928958 -0.004047592247753781
0.01857053881028421 0.0042372656071521025 -0.005026138635722259
-0.006846332665870131 -0.026669862569949243 -0.0021880508728976083
-0.009218708609153473 -0.002116643219502158 -0.0023198552123252433
-0.0033960619998893785 0.002804067263522484 -0.00188054356789693
-0.005165074545574311 -0.0038686041935290507 -0.002081214676982719
-0.00038485442483385886 0.00938072014731933 -0.0028285058851621027
-0.0036603234394200117 0.0033081617917212892 -0.0030516639142867475
-0.004631085214373112 0.0006096580406053575 -0.003444779690513371
-0.002649329398414595 -0.0011199682804406926 -0.0017931937215060379
-0.002543658340223134 -0.010214853643626733 -0.0012192541780622016
-0.005695130730244536 0.032905768780626954 0.005502037417803454
0.013796326910517456 0.008049708742633358 -0.011051732570469682
-0.0039598068242440235 -0.003968524435849406 0.0012694369184062522
-0.0032089925795685936 -0.004283380026516697 0.0014825468983655778
-0.004036269946935919 -0.004100270734237156 0.0014290927031524489
-0.006786187422701347 0.003780950714226846 -0.0031393333935879645
-0.007609629741470479 0.0028930940069089367 -0.0030073924720269624
-0.0034710528587621344 -0.0014563247406278142 -0.00036043518914979266
0.0005788267917677655 0.01571038013298197 -0.002033819807726403
-0.0021405157049221315 -0.0022596042841498106 0.000146094775148192
-0.0003438284862171315 0.0034338066123283336 0.012238258604998414
-0.009793244595092348 0.008651246435787295 0.0071440917419023225
-0.0021919401125452443 0.00032731435929292326 0.006145206444706386
0.004089251205430406 -0.008844707352640636 0.013983409699913232
-0.004487254701993836 0.027885397840543693 0.016094800479426494
0.02512551514539321 -0.13319585386383648 -0.011879593800745072
0.045244169613026144 -0.10107653015367549 -0.006699783707144541
-0.027858415676910428 0.07042632890516819 0.002618520584141011
0.03393695510496999 -0.04020817535827852 -0.00033452095254658045
-0.028204349147823618 0.06973713472503341 -0.0005608703371852203
-0.023942538219348636 0.07805403012195604 0.0005934107141311088
0.02187725914179019 0.0035941373620189732 -0.0024345162400029184
0.021942058391802466 0.0022203294691195696 -0.0017944905985145382
-0.010471009382099014 -0.0010837551768435416 0.004603619613069474
-0.00591782090139754 0.00012126238841294598 0.004022954022604563
-0.02680718626627221 0.03374899622386324 -0.005018669574383165
0.02636924834671731 -0.010924859214444714 0.013203278005053951
0.035085397599241404 -0.013185489183875087 0.006389561685095045
0.006063134286533116 0.06675472347857088 0.003416121960410438
0.0011519460116686407 -0.009624474557002645 -0.0034612558843136144
-0.010259538407093016 0.0015917017591055575 -0.005000695695892508
-0.003547993125244138 -0.0011460992409083016 0.0009369701722077129
-0.0016161192726659045 -0.0017379438238346384 -0.0007982324181037311
-0.003561800983752247 -0.0005664731469080247 -6.721235813282946e-05
-0.0032312059401095475 -0.0013111136435882173 0.00014048569663823983
-0.014204739885340162 -0.11799542166740641 0.00966801073451076
0.004059887942044738 -0.1374603558305241 -0.004824868610567104
-0.007527729608541825 -0.0023548066425425423 0.0015882695077215215
-0.002017669751890239 -0.000937482831321825 -0.0005025448474485855
-0.0009835738230427845 -0.0066227174941507466 0.0019676714243232777
0.0225261023398043 0.0007018073948032672 -0.0017865460065075137
-3.5372869689169706e-05 -0.0031765175181948093 0.002581669391088189
-0.0029792826663032376 -0.0016332683565518332 0.0003525365889953135
-0.006937817063337293 -0.0005344754315319614 0.00035844419556491054
-0.006941517126013209 -0.0009232612647115705 0.0007702732991136541
-0.006410270932889286 -0.0011234720535216632 0.00035327236109234186
0.0013881771945119322 -0.012157203066207736 -0.0009580027887876301
-0.0018537405174125048 -0.010788574142463505 -0.0005619669227709182
0.023219815570321475 0.010500365439518619 -0.0029644176670084086
0.008912287607914748 -0.03679602246957709 0.00047056845288635134
0.015727147078562414 -0.013947625298278993 0.005659736973214597
0.00966563643064405 -0.013328603784848316 -0.0011569945800209247
-0.03038636182411079 0.030361712437377994 0.0021976003825424227
-0.006781511425662072 0.06828080815133014 0.008563671031612756
-0.05606450229039449 0.010335055012159934 0.018257926911654468
0.00774713491864849 -0.024940998276839377 -9.902575940958357e-05
0.016759592236753818 -0.023614240153796352 0.005971503567940724
-0.04603475694931307 0.0385859191887689 -0.00043206410675840465
0.015948713483823363 0.014741284477710115 -0.003037123814407556
-0.02028942645710024 -0.00752928357371047 -0.004850529913029904
-0.018174374987669592 -0.004138607945427874 -0.0003007671863381838
0.001676172306379655 -0.011728389746594433 0.003531156872218415
0.01621872515945957 0.0006209060529140403 0.007270307687545104
0.016293734183976512 -0.0008596596647646852 0.0053620115567650966
0.013763459273521466 -0.0034588962405031993 0.0007919886500774027
0.005513748837623724 0.014025601893453341 -0.005365247845727078
0.0004307161591848922 -0.00814572325695987 -0.0011240506895361774
-0.004951342696374061 0.0573196870722324 0.015276666102474013
-0.025876341568051613 -0.0814356933277025 -0.01620521235277542
-0.04988855094717275 0.11609058815639627 0.021348489407470746
-0.018273449457158905 -0.06761066667637826 -0.01310030869395927
-0.040441273056807864 0.08507461363026622 -0.007191407371136947
0.0031960557980864816 -0.001003507030406463 -0.0011563705226035534
0.009727109621537385 -0.034695535246452226 -0.008113612437136934
0.0133446134028774 0.016686763297883874 -0.00385370904044779
0.00029684327856647135 -0.0012669240447346407 -0.0018212693629197985
-0.0010179175538746193 -0.009832016287891859 0.00167467066550589
0.010215042432300576 -0.011449829560733961 -0.003079689026772908
0.0001269072938600677 -0.00898788857530862 -0.0008525623657284969
-0.001057702146922319 0.020922283293180254 -0.0018095461549054248
-0.01059281248490712 -0.00528561060518243 -0.0075258407406340955
0.006131030313944372 -0.020378247075705187 -0.010072374713380905
0.01070781426273877 0.06156456323321304 0.006181940180861677
-0.01878177427367724 0.1507093298411574 0.020827041133697644
0.013237905314138059 -0.2258598784334525 0.01756369045164351
-0.03566008338550755 0.16112820355769886 0.03410385108177809
0.008996516140276467 -0.05823183350166662 0.012640923547618445
0.01724048624409174 -0.05771735564453714 0.007134624585708027
-0.004665817945798686 -0.008589879843992983 -0.0012691436709404303
0.0006876257859615357 -0.0050421216364609665 0.0016239076192364954
-0.009161504324670805 -0.0028237001445450623 -0.0020687624330933568
-0.006126310425690826 -0.005715506960172997 0.0010678525262566767
-0.006838057932195806 -0.002709098924170183 0.0015215100938922857
-0.006629590612062627 -0.0035655249098829216 0.0015703894922062308
0.026820609099721237 0.06124713648283556 -0.008850079610761601
-0.006434406229091061 -0.002522807357205683 0.0009139661984159824
-0.0068193801612406475 -0.002593892368257103 0.0008470360537062438
0.006040010475843724 0.010818488645385349 0.000810212172480357
0.003418627352566857 0.012658822842296965 0.001104754127741364
-0.006085521818033398 -0.005524855899646649 0.0013692995863967335
-0.0029101566100149124 -0.004587105771943191 0.0014137934424491828
-0.026213803461346826 0.07590856694316138 -0.005332681422055454
0.026402749953750176 -0.023339404540997095 -0.008284302060676197
0.02815572528147831 0.017376177656128953 0.00043990206726856387
0.029382586733262717 -0.04324889056169163 -0.009434614350778511
-0.007987464057905874 -0.0038106335395144244 -0.009780966686550117
0.0245366123759295 -0.006643188048427509 -0.0001276942053937911
0.025874544178769502 0.01183286309567314 -0.0034106131055011246
-0.007313939139888091 -0.0051523158841908084 -0.006636270983370339
0.010657775985222584 -0.0037865968601949853 -0.0038136199090064403
0.007457198499594519 0.00415913195722009 0.0014907313605114353
0.007249260594488706 0.0011174767219389325 0.00042362297988642045
0.021776914218045212 -0.0026115170116714197 -0.003777888970532523
0.0011534446096620296 -0.00161306520353763 -0.0015870143901858032
0.012914237851889734 -0.029197088468143055 -0.007631982415462487
-0.006241882610195813 -0.003971334094789106 -0.008454217377851056
0.00110490993591088 -0.010016645163983736 0.002251655188472591
0.009022875042081359 0.018414187844845914 -0.0044141749325066195
0.01545916545601799 0.0023819654834731038 -0.0035128550222622793
-0.008247779938466697 -0.002600876965644445 -0.004347467146052897
-0.007209210390213359 0.0082480254321382 -0.009316162842747113
-0.0015427382615394746 -0.007326733718523062 0.0008816979135188974
0.017089259374614654 0.0751161683519731 -0.006339765380602595
0.01634489913009772 -0.07855847934105296 -0.012266882254530575
0.02228018176650398 -0.05886047907917956 0.020823004158814707
-0.015105318383248523 0.057255099076628006 0.0021452101366249174
0.030356435862813252 -0.06356976493055086 -0.010918144264294086
0.0009742682346993188 -0.020072306589688255 0.020825326159948983
0.028129897836902423 -0.016648096227031887 -0.00038567760773307563
0.009184179022547168 0.007825471594611302 -0.004177305471746033
0.00433680685085011 -0.002503458670318414 -0.0023205855025594667
0.002488614028834627 -0.0037457035551328216 0.0010554384261075953
-0.008132675460977212 0.022380952366445106 0.021128052183663208
-0.0014448486738688892 0.01785163300653719 -0.007172066381043169
-0.0011435871569617762 -0.0245733471230097 0.007500785256842683
0.010661692210009625 -0.024944397078417047 0.005757024606856383
0.002380771309115671 -0.002280829929840349 0.0001299785372162263
0.0027434993993204516 -0.0007062531548543167 0.0007064446738486116
-0.02079231462819508 0.07285915841414044 0.0065046183657775525
-0.006377628097785211 -0.001310736376560247 0.0007070859264735271
0.011709173413605015 -0.008970267158779856 -0.002051130855708638
0.002516494460550854 -0.10367578417395891 0.007134040434096378
-0.006958475827967174 -0.005553755675437716 -0.002882488049990223
0.002135504010376446 -0.0027699552400208606 -0.0014483462529046168
0.0013603899389543082 -0.0027171781265144055 -0.000681119162191998
0.001714834656671983 -0.0021679588426751187 -0.0018433571770702173
-0.006768430836615685 -0.002168247348840697 0.0012044554238715675
-0.0029988890458153097 0.006736708309472697 -0.0023641088942443792
0.013700064969753591 -0.02726274735572082 0.0066813323807075635
-0.007173677465306774 -0.0013144209405390292 -0.0006803288234390269
0.018382203166147696 0.10445095758431994 0.009470633525904944
0.02642439658655764 0.08494022550793927 -0.003952352532629489
0.0021304423142190845 0.013915246778448043 0.00801239306480313
0.01933173437697534 -0.005563770913329255 -0.007302818819822768
-0.006362053605184833 0.01522525621360636 -0.005259637578443762
0.010970640990545698 0.028526930065185203 -0.004500302870599585
0.006020273103113748 0.004407078388532614 -0.003460795223691253
-0.026425473202530192 0.04739692296685651 0.009719730615447354
0.00434638421845709 0.0031369830251123188 -0.0015761563462513464
0.000346775145785925 -0.006681968325090007 -8.68206281522439e-06
0.008091020702219686 -0.06730699600344384 0.0014012950965221233
-0.010177880580937002 0.07886266990798287 -0.01413306762057093
-0.023601481014157842 0.009055163780361052 -0.00999562103183647
0.0045014010128749836 -0.013710865696410219 -0.002697415974371063
0.0018803334151930309 0.011633782671585505 -0.001980205801580654