# vtk DataFile Version 2.0
Really cool data
ASCII
DATASET UNSTRUCTURED_GRID
POINTS 584 double
-1.0 0.0 0.0
-0.9600374798207896 -0.027590413451835553 0.04
-0.9589620457797374 -0.028177574718636023 0.0
-0.9553815213922792 0.019675326217199102 0.04
0.6719637381218919 0.02110482676547816 0.0
0.6414775595248179 0.020020515529780993 0.04
0.6571281419012174 0.06 0.0
0.6240641012293764 0.022292119262118645 0.0
0.687851041884645 0.021313940245698455 0.04
0.7030120427199962 0.06 0.04
0.657128141901218 0.06 0.04
0.7030120427199952 0.06 0.0
0.6885310613992013 -0.0196061899732657 0.0
0.6720046167250797 -0.020579604775701428 0.04
0.6407079554435648 -0.019738458112036637 0.0
0.7171469290115033 0.021165332718839136 0.0
-0.7921016077200962 -0.06 0.04
-0.7604373514312079 -0.019298436119384588 0.0
-0.7479973317145423 -0.06 0.04
-0.7479973317145417 -0.06 0.0
0.7030120427199962 -0.06 0.0
0.7030120427199952 -0.06 0.04
0.6571281419012174 -0.06 0.04
0.7479973317145417 -0.06 0.04
0.7325903506195701 -0.020274227246539274 0.0
0.7176321617908783 -0.019839353713154383 0.04
0.7604373514312079 -0.019298436119384588 0.04
-0.8488906624897727 0.019856366527450334 0.04000000000000001
-0.8052789150181434 -0.019306901564895652 0.0
-0.805541091654972 0.020469431563422978 0.04000000000000001
-0.8203038938742353 -0.020636147377884773 0.04
0.897529295217204 0.022569895749215793 0.0
0.8488906624897727 0.019856366527450334 0.0
0.8569454102823642 0.029774901726562965 0.04
0.8777357995360431 0.06 0.0
0.9553815213922792 0.019675326217199102 0.0
0.95349853104827 0.02147987272312249 0.04
0.9103536180674616 -0.021283841161765512 0.0
-0.5450807564691462 -0.01715484187473429 0.04000000000000001
-0.5372746904547943 0.02439300391790418 0.04
-0.49049502097572617 0.000359712426279548 0.04000000000000001
-0.5409244119327052 -0.005150142234760652 0.0
-0.48901428549955095 -0.02776609156780287 0.019771763033692314
-0.4642419910175897 -0.06 0.04
-0.43891524330526177 8.673617379884035e-17 0.04000000000000001
0.7479973317145423 -0.06 0.0
0.9600486361512215 0.06 0.04
1.0 0.06 0.04
1.0 0.06 0.0
0.9192992165657531 0.06 0.0
0.7479973317145423 0.06 0.04
0.7309057796957548 0.02177174945441851 0.039999999999999994
0.7479973317145417 0.06 0.0
0.7613659684934695 0.020945326906433456 0.0
0.7736855084518748 0.020914979208800512 0.04
-0.8570647961856006 -0.015388027432140593 0.0
-0.8569454102823642 0.029774901726562965 0.0
-0.8649535140731797 -0.02016838668923704 0.039999999999999994
-0.1726925416005594 -1.214306433183765e-16 0.039999999999999994
-0.22806385632140147 1.0755285551056204e-16 0.039999999999999994
-0.2006519843784229 0.06 0.0
-0.22806385632140147 -1.1796119636642288e-16 0.0
0.438611990705585 -5.252150912499892e-05 0.04
0.41358849559293387 -0.06 0.04
0.4135884955929341 -0.06 0.0
0.4642419910175897 -0.06 0.0
0.4782715374234063 0.0302584611690398 0.019894876072988572
0.513903464641242 0.06 0.0
0.49049502097572617 0.000359712426279548 0.0
0.46424199101758934 0.06 0.0
0.46424199101758934 -0.06 0.04
-0.8164681441220105 0.022269284396602723 0.0
0.48912437490067595 -0.00041996788971368666 0.04
0.4642419910175897 0.06 0.04
-0.8353421249080566 0.06 0.04
0.8649535140731797 -0.02016838668923704 0.0
0.8973163514988121 0.02144006532192878 0.04
0.5625923446839085 0.06 0.04
0.6103276788742331 0.06 0.0
0.5943416245309461 0.018901239582525348 0.04
0.5790918012159274 0.021628695864523574 0.0
-0.593631917725493 -0.01946781888421301 0.04
-0.6103276788742336 -0.06 0.04
-0.6407079554435648 -0.019738458112036637 0.039999999999999994
-0.6264545933043166 -0.021459100211208025 0.0
-0.6103276788742331 -0.06 0.0
-0.6103276788742336 0.06 0.0
-0.6240641012293764 0.022292119262118645 0.04
-0.6414775595248179 0.020020515529780993 0.0
-0.5943416245309461 0.018901239582525348 0.0
-0.5790918012159274 0.021628695864523574 0.04000000000000001
-0.5625923446839077 0.06 0.04
-0.6103276788742331 0.06 0.04
-0.5625923446839085 0.06 0.0
-0.7325903506195701 -0.020274227246539274 0.039999999999999994
-0.7176321617908783 -0.019839353713154383 0.0
-0.7309057796957548 0.02177174945441851 0.0
-0.7736855084518748 0.020914979208800512 0.0
-0.7613659684934695 0.020945326906433456 0.04
-0.6571281419012174 0.06 0.04
-0.6719637381218919 0.02110482676547816 0.039999999999999994
-0.7030120427199952 0.06 0.04
-0.687851041884645 0.021313940245698455 0.0
-0.029521960903255984 -0.06 0.04
-0.05860957814939871 -6.938893903907228e-17 0.039999999999999994
-0.05860957814939863 5.898059818321144e-17 0.0
-0.08769719539554167 -0.06 0.0
-0.08769719539554144 -0.06 0.04
-0.2823507532564078 -5.204170427930421e-17 0.04
-0.25547572826437986 0.06 0.04
-0.25547572826438003 0.06 0.0
0.38751191920162714 6.938893903907228e-18 0.0
0.3352618020299945 -3.469446951953614e-18 0.0
0.36192316205531716 0.06 0.04
0.3619231620553172 0.06 0.0
-0.36192316205531716 0.06 0.0
-0.335244821032008 -1.1796296425746478e-06 0.0
-0.3352618020299945 -3.469446951953614e-18 0.039999999999999994
-0.38745316199969926 -7.894682722445895e-06 0.0
-0.3619231620553172 0.06 0.04
-0.3092257782484355 0.06 0.04
0.28235075325640757 5.551115123125783e-17 0.039999999999999994
0.30922577824843556 -0.06 0.0
0.335244821032008 -1.1796296425746478e-06 0.04
0.3092257782484355 -0.06 0.04
0.36192316205531716 -0.06 0.0
0.38745316199969926 -7.894682722445895e-06 0.04
0.3092257782484355 0.06 0.0
-0.38751191920162714 6.938893903907228e-18 0.04
-0.28235075325640757 5.551115123125783e-17 0.0
-0.30922577824843556 0.06 0.0
0.6103276788742336 -0.06 0.0
0.593631917725493 -0.01946781888421301 0.0
0.6264545933043166 -0.021459100211208025 0.04
0.4889627886584896 -0.027603176797077415 0.020155725176282127
0.583287522480325 -0.023728770665855194 0.039999999999999994
0.5450807564691462 -0.01715484187473429 0.0
0.5409244119327052 -0.005150142234760652 0.04
-0.48912437490067595 -0.00041996788971368666 0.0
0.3619231620553172 -0.06 0.04
-0.657128141901218 0.06 0.0
0.9600374798207896 -0.027590413451835553 0.0
1.0 0.0 0.04
0.9589620457797374 -0.028177574718636023 0.04
0.5625923446839077 -0.06 0.04
0.5625923446839085 -0.06 0.0
0.7766984080639845 -0.02052537972713625 0.0
-0.438611990705585 -5.252150912499892e-05 0.0
-0.583287522480325 -0.023728770665855194 0.0
-0.9600486361512215 0.06 0.0
-0.95349853104827 0.02147987272312249 0.0
-0.9192992165657539 0.06 0.0
-0.9192992165657531 0.06 0.04
-1.0 0.06 0.0
-0.14473309882269625 -0.06 0.04
-0.14473309882269605 -0.06 0.0
-0.11621514710911887 -1.214306433183765e-16 0.0
-0.17269254160055947 1.1796119636642288e-16 0.0
-0.14473309882269625 0.06 0.0
-0.11621514710911884 1.214306433183765e-16 0.039999999999999994
-0.8353421249080566 -0.06 0.0
-0.8353421249080575 -0.06 0.04
-0.8973163514988121 0.02144006532192878 0.0
-0.897529295217204 0.022569895749215793 0.04
0.11621514710911887 -1.214306433183765e-16 0.039999999999999994
0.05860957814939871 -6.938893903907228e-17 0.0
0.05860957814939863 5.898059818321144e-17 0.039999999999999994
0.08769719539554144 0.06 0.04
0.6103276788742336 0.06 0.04
0.5139034646412424 -0.06 0.0
0.9096368506350345 -0.020963842829632554 0.04
0.805541091654972 0.020469431563422978 0.0
0.8052789150181434 -0.019306901564895652 0.04
0.8203038938742353 -0.020636147377884773 0.0
0.08769719539554144 -0.06 0.0
0.08769719539554167 -0.06 0.04
0.9192992165657531 -0.06 0.04
0.8164681441220105 0.022269284396602723 0.039999999999999994
-0.9103536180674616 -0.021283841161765512 0.04000000000000001
-0.8777357995360431 -0.06 0.0
-0.9096368506350345 -0.020963842829632554 0.0
0.8570647961856006 -0.015388027432140593 0.04
0.7921016077200956 -0.06 0.04
0.8353421249080566 -0.06 0.04
0.7921016077200962 -0.06 0.0
0.4135884955929341 0.06 0.04
0.43891524330526177 8.673617379884035e-17 0.0
-0.7921016077200956 -0.06 0.0
-0.08769719539554144 0.06 0.0
0.14473309882269605 0.06 0.0
0.1726925416005594 -1.214306433183765e-16 0.0
0.11621514710911884 1.214306433183765e-16 0.0
-0.029521960903255984 0.06 0.0
0.0 0.0 0.0
0.17269254160055947 1.1796119636642288e-16 0.04
0.14473309882269625 0.06 0.04
0.0 0.0 0.04
0.2006519843784229 0.06 0.04
0.22806385632140147 -1.1796119636642288e-16 0.04
0.22806385632140147 1.0755285551056204e-16 0.0
-0.6720046167250797 -0.020579604775701428 0.0
-0.7030120427199962 -0.06 0.04
-0.7030120427199952 -0.06 0.0
0.25547572826438003 0.06 0.04
0.30922577824843556 0.06 0.04
0.25547572826437986 0.06 0.0
-0.02952196090325599 0.06 0.04
0.2006519843784232 -0.06 0.04
0.14473309882269605 -0.06 0.04
0.2006519843784229 -0.06 0.0
0.14473309882269625 -0.06 0.0
0.2823507532564078 -5.204170427930421e-17 0.0
-0.36192316205531716 -0.06 0.04
-0.41358849559293387 -0.06 0.0
0.5372746904547943 0.02439300391790418 0.0
0.5139034646412424 0.06 0.04
-0.5139034646412424 -0.06 0.04
0.41358849559293387 0.06 0.0
-0.7171469290115033 0.021165332718839136 0.04
-0.7479973317145417 0.06 0.04
-0.7030120427199962 0.06 0.0
0.08769719539554167 0.06 0.0
0.029521960903255984 -0.06 0.0
-0.02952196090325599 -0.06 0.0
0.02952196090325599 -0.06 0.04
0.02952196090325599 0.06 0.0
0.029521960903255984 0.06 0.04
-0.47805793986482265 0.03008719549728311 0.01940109733029794
-0.4642419910175897 0.06 0.0
0.6103276788742331 -0.06 0.04
1.0 -0.06 0.04
0.9600486361512205 -0.06 0.04
0.9600486361512215 -0.06 0.0
-0.3092257782484355 -0.06 0.0
0.877735799536044 -0.06 0.0
0.8777357995360431 -0.06 0.04
-0.41358849559293387 0.06 0.04
-0.4135884955929341 0.06 0.0
1.0 -0.06 0.0
1.0 0.0 0.0
-0.14473309882269605 0.06 0.04
-1.0 -0.06 0.0
-0.9600486361512215 -0.06 0.04
-1.0 -0.06 0.04
-0.7921016077200962 0.06 0.0
-0.9192992165657531 -0.06 0.0
-0.9600486361512205 -0.06 0.0
-0.7921016077200956 0.06 0.04
-0.7766984080639845 -0.02052537972713625 0.04
-0.5625923446839085 -0.06 0.04
-0.5625923446839077 -0.06 0.0
-0.877735799536044 -0.06 0.04
0.7921016077200962 0.06 0.04
-0.3619231620553172 -0.06 0.0
-0.7479973317145423 0.06 0.0
-0.8777357995360431 0.06 0.04
-0.4135884955929341 -0.06 0.04
-0.46424199101758934 -0.06 0.0
0.513903464641242 -0.06 0.04
-1.0 0.0 0.04
-0.877735799536044 0.06 0.0
-0.30922577824843556 -0.06 0.04
[...]
POINT_DATA 584
VECTORS displacement double
-0.019486787931535493 -0.00697190426407459 0.06094271828508883
0.0023125245124239707 0.0029669133748886495 0.04384811828024512
-0.014451690372952413 -0.0027487082830133075 0.04227166431557128
-0.005086944087297529 0.0034126720656674314 0.03444034696738481
0.0019798016874718926 -0.008742188460587942 -0.006846822208729854
0.007803189220613579 -0.008549660783829512 0.007637050769181982
0.005963410863861398 -0.007403931783550754 0.0037556375399747334
0.00031595374934592803 -0.002889000305312973 0.014441200947775595
0.005441327195569609 -0.015605080722808121 -0.014849777083600954
0.010838895900633708 -0.012208356368668185 -0.013778315236321273
0.012125665378899883 -0.009349278852448939 0.0021824333929597456
0.006438050447630087 0.0008433874024096874 -0.013120068393727393
-0.0011951170516512958 0.0008715758143905765 -0.027079213974183634
0.0015335755589928873 -0.02246468903764197 -0.01585467828296841
-0.0009901605891845086 -0.00010055453636253174 0.005137854397991294
0.005824326690309284 0.016847846333556165 -0.029539449718912463
0.012004235091513065 0.0030908654519382853 -0.06238386920750541
0.0020315916165301057 0.001956869645246132 -0.053167114056617185
0.016454983422562908 0.0004914449302320852 -0.05719463412701924
0.016315564568380066 0.0059762872445950155 -0.058819557293870506
-0.017268459637267072 0.0238277368279362 -0.045839557515921066
-0.015479328978779384 0.016408257271931005 -0.04256915667848335
-0.019244562307471354 -0.027870772963262846 -0.015147208821831008
-0.02191288237552405 0.01660177554709846 -0.06243954078220592
0.008496566189341283 0.03337812203610021 -0.04392961630643247
0.008315079066136632 0.01999352873115232 -0.0381477969290144
0.01022275484750817 0.01879345194736292 -0.05011290661038549
-0.004172156507131802 0.009627634944217487 -0.030236604730353993
-0.0020466631178661207 0.018117855419436706 -0.05006246330734388
-0.003795209885035867 0.012216909612460476 -0.04434165728123883
0.004953057252113419 0.013347711387807366 -0.046428009529417745
0.023804305614851487 0.00149682522285111 5.03910222056901e-05
0.017532906513620834 -0.010798730866348248 -0.022911217420330577
0.010344803315604003 -0.02309908297164273 -0.022125842656626125
0.014031078000382492 -0.005799894673396698 -0.006848257964794251
0.02435511841411236 -0.012740414045582949 0.026183541762455357
0.013698148332218066 -0.005192342663887646 0.0233644654342951
0.022492828547311043 -0.0013382603764873497 0.01506473350072493
-0.0021122157909732923 -0.021970179655296986 0.05843329771706593
-0.011839278488363018 -0.022047137030559605 0.05118802854547595
0.0005401602539626792 0.016414396747540357 0.0459145426399051
-0.0021601092626366753 -0.02705079099850276 0.05708857450206969
0.009075366359584131 0.010222548340375316 0.049910522651419924
0.0010852964386897463 -0.02336344255168312 0.03864925468296387
-0.009278650015849514 -0.0090214929442257 0.025623169571078994
-0.01707533188803298 0.03126753164416895 -0.05971604655802639
0.012444463977992403 -0.0057875384918896055 0.018606820457098345
0.016730004304511124 0.00677488908014055 0.03348249070485314
0.025960463898357638 -0.0022524441062573767 0.03316132875981803
0.021960823722542527 0.0001700835821159258 0.0036204514912525194
0.015695197047322418 0.020538383599327817 -0.027602921538903938
0.01043308501333307 0.0144232602111778 -0.030716602050868007
0.015613893131565078 0.030467343873467802 -0.02887595352231119
0.00951399623428148 0.03219351409572151 -0.03915747903310887
0.008011790084825476 0.017834824960823947 -0.038434669625195476
-0.009534504777006191 0.00953975403093364 -0.027580706241914135
-0.01752978526927393 0.00768999385619748 -0.024700233100406227
0.002901175827331106 0.0020605341839206362 -0.023744837376530624
-0.002657521636239169 0.000533565768546369 -0.022710631919027127
-0.004305384995583226 0.007005873265753163 -0.04624645665809845
-0.00256838939117121 0.007247585357958877 -0.03158049314915706
-0.0013946303406760677 0.012720894335477757 -0.04731162059413061
0.0027316545814676627 0.007267369617009624 0.029314327625941387
-0.00825357311490325 0.011386143339103389 0.019214465466518796
0.004608217857514807 0.006181667757909598 0.023055445769553682
-0.0004215041314346628 -0.020821206352186098 0.05285836664750319
0.005918590681034275 -0.03669545503875337 0.03894880514384281
0.0022027771891803562 -0.01700275741479079 0.03857252680297681
0.005992081929510009 -0.03848929582545386 0.04679244214667938
0.015579648149010696 -0.03146796582632149 0.02854471464202424
-0.01492389376175687 -0.012829636541179261 0.054874896069196585
-0.012873861674449148 0.01816318217431652 -0.040692064361782854
0.007569172804882057 -0.028765611298494403 0.048098001211158
0.013668337094114693 -0.027389389928588692 0.028797746847181813
-0.0014175967480171958 0.011732133310339994 -0.0326613235874225
0.024854049431722723 -0.009539856248493777 -0.015234461495073418
0.014547099049562333 0.006025988182029668 -0.0031778550629449603
0.01109086355567174 0.01025465899057499 0.03258215503908813
0.004904805185237173 -0.004893327295472899 0.018842491881295304
0.0031940315867992537 0.0004908473944640134 0.030060037131541206
0.0004812020269782201 -0.0007180930866116786 0.034226081330236094
0.008283950920517478 -0.008791405214848239 0.03990361985914245
0.009927719589737333 -0.005055551111467349 0.038907303372865125
0.007037666712508746 0.025305260911536877 0.010693564353308834
0.015848089300305415 0.006053355037472047 0.021134977850317798
0.016586056931363117 -0.010136837735569202 0.0401698487596169
-0.00967672406030615 -0.005467459746851243 0.02460096979008958
-0.006272261593895608 -0.002874577390336495 0.018373077253658304
-0.001022263506758891 0.007355380037175485 0.006530479035518264
0.00027490479578546223 -0.010932403420525812 0.03498803166942633
-0.008087430091684002 -0.005260838111351719 0.03880382402127457
-0.009488351863057163 -0.004000833448553497 0.03858144969444304
-0.013234796898657877 0.00219806948231412 0.020429024282144884
-0.012396015835947407 -0.01278223707943176 0.04143472592336272
0.003068815894197035 -0.0019132539841138002 -0.04342391925429464
0.007457385031300171 0.00413851650268138 -0.04025056313716382
-0.007845292619882066 -0.002294867785778434 -0.038067084787106444
-0.0064437823188678274 0.006688262734039074 -0.04479382455086159
-0.006105143009611486 -0.006457160079105408 -0.046688914698146386
-0.012529327047200292 0.015089297360433683 -0.0019486497329429646
-0.009740407193901651 0.0032639484455031257 -0.011711042818070666
-0.01370135817083172 0.0032988205241060047 -0.02921924331223313
-0.0018802033800161908 0.0017950351040826522 -0.019197445003505648
-0.005271912670590681 -0.008520916766046509 0.06023612517434534
-0.002138263711100806 -0.002629531442808057 0.04024889973610948
0.0016947743401506152 -0.0100019879928486 0.03915646844469492
0.0033054004198302 -0.009544781623312355 0.0383044964109893
-0.0029587770980481288 -0.0031824186529544178 0.037221722466293815
-0.0009012527965451381 -0.0039946529802862 -0.04974215867765475
-0.00747117088584112 0.004517735671492319 -0.04055038928717619
-0.007810748425750645 0.010620496131511078 -0.03996117882931916
0.015176123848413351 0.007620251639824257 -0.00032902788195629556
0.005309938610483762 -0.007093222750031204 -0.02979543092052727
0.00482804110884583 -0.021013527615461422 -0.013253628503884467
0.011732231597982621 -0.01683830809509677 -0.012337820295759533
-0.017170555843694965 0.02275171511479719 -0.011479800789148713
-0.012139695855794545 0.01943725936059944 -0.03462531372367378
-0.007132526887018465 0.012469692055214929 -0.03475266906249937
-0.00702185580007423 0.00016647036895859802 -0.006156513145943135
-0.011614361616652014 0.021448252712630806 -0.014079833535822622
-0.006293628348971919 -0.0036039704001533364 -0.03267809587470147
-0.0010915185888805505 0.01602048312333658 -0.048188505677681744
-0.009420399812513752 0.011128659476352672 -0.04783476762838707
0.0015187573094567381 -0.011181559442776755 -0.029418805452219296
-0.014308015071139584 0.004994409568730393 -0.04989041989806891
0.001274830879401306 0.0026955450027760543 -0.020375505335693034
0.006784001148365674 0.006408163494400925 -0.0012678012970792376
0.00993198030422912 0.009574411081025355 -0.03167734282952809
0.001453075518853065 -0.006735877789939098 -0.004386032773474342
-0.0029313092397395294 0.005296376590333743 -0.048166278839081776
-0.01004039936333824 0.005903073302656407 -0.030950765152760303
-0.014864099627682323 0.011566110199117493 0.025036111525077304
-0.006558136233940909 0.0025150448514375512 0.032288552491303496
0.0030164182948099662 0.013007936939764651 0.013664911375072038
0.001657471994916426 -0.03322518150978848 0.05615496459907102
-0.0023235349845271503 0.0021544554253273836 0.039686535582177246
-0.0045460237845513255 -0.0018484714765087378 0.05509715137438269
0.002109180801700894 0.013061984180047717 0.04947826028082653
-0.001189651053019384 0.013361317275482155 0.046932878356356844
-0.006473449968660557 -0.0010884704796718563 -0.020798078388922107
-0.00885504675098857 0.01317891224387854 -0.0013438613160023521
0.012302777692359936 -0.015571141802987569 0.040536002231512776
0.009022322196023539 0.008225885509446161 0.041395248287128934
0.005639192622938751 -0.00830169671094418 0.03902081347749265
-0.01314283974303646 0.005283262506137876 0.05495620356941109
-0.01657142771599083 0.0013618803571557184 0.05163151944663764
0.012628307315154063 0.026494797508903586 -0.04910271425969726
-0.014487863708940419 -0.009569684763049797 0.023824689835365218
0.011982607903897382 -0.02294525266315006 0.047413058772232536
-0.023121126557437005 -0.004003515934233469 0.032402270482919666
-0.020294141027289367 -0.002548453009759829 0.03433520530016666
-0.018115191056606177 -0.008943785308970994 0.011517042897851368
-0.004689108472317353 -0.004680792979017468 0.007776086769189528
-0.024784246251362746 -0.008271797330443824 0.05068863379545531
-0.002808574629178692 -0.00867955341975948 -0.002177683342392594
0.006421178719728794 -0.00982084569435601 -0.0020853457067886577
0.004230015308635118 -0.00776937885105368 0.013304183923875034
0.004856037490401255 0.0011408771586460613 -0.020981277474511964
-0.001125331803776372 -0.0022647554979828882 -0.0070729766159951775
-0.003500521517679861 -0.0024285451739515626 0.010919738841518504
0.0014075381334074284 0.020491867156641308 -0.043712045393901014
0.01000091741804555 0.017792724529759843 -0.04580422212462114
-0.019800153116246662 -0.013827062451644948 -0.001469658192624595
-0.007122405483842309 -0.014409617108221685 -0.0032836187936680222
-0.001261151643203258 0.0038256197611670167 0.007352579592876261
-0.007879686447240852 -0.011048425112164612 0.03813487731192992
-0.003586469022101673 -0.005683281528643221 0.036764705917962215
-0.003974394720599771 -0.006677443571517165 0.020009433817749122
0.010578267995406565 -0.0025613575318841958 0.01960959385090241
0.0002977126527571812 -0.03253875312857881 0.06878615973604567
0.01057156572252344 0.012340495228447431 0.009210003797111444
0.017753990994230633 0.006428903384668166 -0.03509955833205942
0.008086468750112891 -5.254356989178703e-05 -0.04302889332825818
0.01803338093342519 0.002235201371619569 -0.037876648739664724
-0.016938063755609967 -0.006609170990905962 0.025969824027696906
-0.008142894069883075 -0.004861254330359835 0.027197846311685252
-0.0312198430155896 -0.015977120561889376 0.028423935955204257
0.01356180325887432 -0.0064227119724091656 -0.033786937019228094
-0.00036263884339553194 -0.014153897326076071 0.0073510329970313615
-0.005620539287602974 0.002135045291802261 -0.01775202805358573
-0.01589649780969193 -0.014569727123259674 0.006685484126850253
0.015087755179255317 -0.00653122245174984 -0.020543422953459435
-0.025651971052229668 0.006097963146578047 -0.05979025998567762
-0.020627571957801846 -0.0008316124771857903 -0.03343083286158766
-0.01495239045141959 0.01832065293006594 -0.06056281105245952
0.007734379580327478 0.03353177548929089 0.009982219938839717
0.005394139970855735 -0.0017724147451516987 0.028556672072940093
0.005163774242239103 0.012708214413421176 -0.060957440148786436
-0.0008257717805111099 -0.008930186347802455 0.019991989199054625
-0.004382600680232655 0.008081428735286717 -0.004547414498233084
-0.008161054168863712 0.009121736106627334 -0.025279982494616424
-0.009217064678652421 0.004270096749273498 0.007248085986656364
-0.002941938483842638 -0.009175383157654877 0.03671671480064985
-0.005131409742848492 -0.011010016269530007 0.049840031062404075
-0.00011733308568694594 0.0036794162450966023 -0.026074523027275094
0.001696813786041861 0.005242723450485041 -0.006305354441998074
-0.004128357266621988 -0.0024189556195478457 0.04874514988219032
0.00488142909763157 -0.003051592813961029 -0.028052422357598382
0.0004587884947372374 -0.0024386528408357334 -0.045568198355148165
-0.002105331613593208 0.007962154410618821 -0.048337176890622294
0.015433671757331444 0.00915719937137693 -0.01024797272347457
0.021261353209572703 0.009498969920622774 -0.03655861271714411
0.026672271634887196 0.009039612087711996 -0.032262702025871275
0.001847536655974476 0.009226846393724555 -0.03758204649516857
0.005816579442893041 0.00619365747698283 -0.033172113513081844
0.000587483341897995 0.016340640662002616 -0.0406907829532773
-0.0031327084202345213 -0.0018461217252512551 0.036920045152467336
-0.012583053615122677 0.0032587798205593525 -0.0508520145400616
-0.01196354883414021 0.005003389828672117 -0.014052328113501999
-0.016633237310816756 0.01057165136151608 -0.05121824405452161
-0.01934475026137161 0.00836841170679832 -0.014280412130278888
0.0023712963789912205 0.02228308712929011 -0.04695285602629308
0.0025589501055390917 -0.005967854240660753 -0.030071301135968845
-0.008873525593917098 0.010837587133054362 0.004210206827476532
0.0037091005804134876 -0.0033354484158816793 0.0413144638317447
0.006120299827760473 -0.012267421228423513 0.03643272880192057
0.01648805023879119 0.025617301003820824 0.06741358653995305
0.015566066668397858 0.02747091486776394 0.009899865478235566
-0.008415684395869661 -0.017563299998225226 -0.03495430965071922
-0.0005539939490586261 0.008785813643169172 -0.0381463451309407
-0.007367468863582404 0.00014823405234156372 -0.02436442562137587
-0.007807243672112023 -0.008170425050987971 0.02234191516260728
-0.013707835302686934 -0.011204159033332203 0.056127176034535826
-0.004638726717588257 -0.01498385765640814 0.057372649101700104
-0.00895777586793247 -0.005035938088560839 0.057114893859602715
-0.005569730392918337 -0.010817749251602154 0.03515234472065025
-0.0031068667149727787 -0.0033447335023912726 0.0361243560352949
-0.007146605262319812 0.019740280132488502 0.041212403863604107
-0.014203360437334592 0.01491103578134777 0.034137775136481176
-0.007907229672319134 0.015138034171492244 0.02577406036015715
-0.0123616905759507 -0.01630228322452644 0.0483944504819031
-0.022151865504715783 0.009087657126379713 0.05184536560093599
-0.013516915207012705 -0.010117478422239153 0.04958001682970253
-0.005677974178718284 0.02275438114862236 -0.056203497338849134
-0.005554182587780783 -0.013081382830923846 -0.008483213032918558
-0.01840008645263764 -0.01591156831675054 -0.009932109030981458
-0.01145287801316288 -0.026274344719027353 0.013170076560242626
-0.016844065772608958 -0.021446069330204293 0.014910858536300121
-0.006988429386213678 -0.02199562063598625 0.05532927202988337
0.021650962237763534 -0.002912858356892016 0.0452396261834563
-0.005353143954845576 -0.0010324735152285305 -0.008046050055514167
-0.009060191520192927 -0.002541960422585476 0.07182415853933845
0.00466594149870054 9.860245816410891e-05 0.046844467030020834
0.005420929599854159 0.00598309715964367 0.07086027381481397
-0.0027251034042091154 0.011030921605377735 -0.04128301597189003
-0.010199837870568168 -0.014421762285153884 0.01567770878316312
-0.00981792465732336 -0.003178330585002632 0.047251840708185826
0.002903475496886938 0.007898595971697795 -0.04019542989693167
0.002386756621145414 -0.00361835854175421 -0.05474586321133497
0.00872156675726475 -0.03349270489567782 0.06222190711181066
0.009498760555570461 -0.03702260511633254 0.05908253380501149
0.0069735309948267725 0.0009694181760142663 -0.01835773840251896
0.0253172817999233 -0.007476519731441318 -0.030135774368612506
-0.004385636820861086 0.0008436336093389318 -0.029128935822488797
-0.002534437865694988 0.009486300212258237 -0.03686142356682814
-0.006909371970627607 -0.007626429267084119 -0.014079688080740256
0.0025854043853980016 0.012012470292703983 0.011115470103464023
-0.00773598581723319 -0.019712451631695434 0.04008725768374173
-0.004068498541475669 -0.022914599033405595 0.06475820754408768
-0.0032977484937793534 -0.0006502874534665932 0.061341100282126235
-0.020599709157207997 -0.004733602056463622 -0.012686859241018646
-0.0022796593072445387 0.014985974476499795 -0.055004073946714166
-0.0013366822374421062 -0.008771611701312396 -0.06154538626878004
-0.004048518593299225 -0.0036932028916853957 0.019160630377864883
-0.007706359237900514 0.016261593179031125 -0.061361205035642984
0.0025175767590005387 0.0016523800335432577 -0.06480260673922905
-0.008588724722138043 0.0007915249265552739 0.031378858597712965
0.003014637281827454 -0.011658473065885315 0.01588650557190525
-0.0234781704905047 -0.018200523814335963 0.04559921866619688
0.008475925261236935 0.006258444864390716 -0.02229250904451593
0.02309714508166 -0.01345107233428229 0.019694007308050498
-0.011653077405539586 -0.0007439164023267268 0.04811559521691302
-0.016726490393090362 -0.01819019035110137 0.047432770747734596
-0.006677514893596781 0.0280532519667332 0.029154663720504084
0.029571852554640704 0.006096314710623826 0.004374905061620242
0.0017460016958554326 0.001534734844870898 -0.014694968618146401
0.009388644174802552 0.008643420429488445 0.0003279103479273302
-0.009303151907621003 0.0074093395482647175 -0.06323367667455364
-0.00781756946043541 0.002473965794190189 -0.03413564202863863
0.009733584441478349 0.006525530945009 0.06275291042021043
-0.005151764736544064 0.0035857068574011025 -0.03051938829563801
-0.012719482370710971 0.015185162611492609 -0.0300377597258936
0.028612997515023674 0.009904329490474912 -0.014408099561603651
0.02301374959193314 0.014859875944058212 -0.02733141681768024
0.030324033764020337 0.005011263728866961 -0.027100000749652412
-0.01234488914932398 -0.011026658166274853 0.021649798115315155
0.005757935995408698 0.0022384118884449184 0.03148448056604576
0.02462384416102821 0.002526375491399187 -0.0014242249332975737
-0.02486049276520167 -0.01210025503219643 -0.017547798294201073
-0.004716089453368713 0.010652598395419636 -0.042353322119141674
0.003956433446995074 0.012545059040525473 -0.039253809448188
-0.0008030786922350749 0.0044903336842381306 -0.028676249107211674
0.022762714721854437 -0.01164599748046924 0.016456470500252684
0.020098232180615638 0.005834123420894246 0.044633982438208736
0.02311544004902329 0.006816022895424946 0.04832319682866684
0.010785488476149628 0.0077978466020130945 -0.04688269128226782
0.0013943885306542218 0.0042070640911056716 0.0067009562961687094
0.00022347984939982753 0.00471858799644813 -0.04467388940860572
0.0011072304600766927 0.0060526675372647885 -0.03129054343576166
0.0016596419706855045 -0.01647354708682614 -0.0607700269686956
-0.0054673552751562954 0.0037396237638974246 -0.043373658730574284
-0.005647552151139177 -0.0006886604453165318 -0.045654895718051786
-0.01192085207971447 0.007075255425660867 0.039800639185745834
0.007217831751048982 -0.001406273972122717 0.03896413302950072
-0.006872284331482437 0.0028919413716242924 0.018935833420285528
0.011268957390992465 0.007697745689866453 0.05665267419195368
0.006444864321560595 0.01130309405568302 0.034854704571481376
0.016147713104709548 0.007166416456153567 0.06063385778275211
0.022784665940916854 -0.007189806882004192 -0.019014572843201315
0.010590485724569545 0.0001559440758276874 -0.025173028224099066
0.006326139367891145 0.00868259755016782 0.008633546912457707