# vtk DataFile Version 2.0
Really cool data
ASCII
DATASET UNSTRUCTURED_GRID
POINTS 584 double
-1.0 0.0 0.0
-0.9600374798207896 -0.027590413451835553 0.04
-0.9589620457797374 -0.028177574718636023 0.0
-0.9553815213922792 0.019675326217199102 0.04
0.6719637381218919 0.02110482676547816 0.0
0.6414775595248179 0.020020515529780993 0.04
0.6571281419012174 0.06 0.0
0.6240641012293764 0.022292119262118645 0.0
0.687851041884645 0.021313940245698455 0.04
0.7030120427199962 0.06 0.04
0.657128141901218 0.06 0.04
0.7030120427199952 0.06 0.0
0.6885310613992013 -0.0196061899732657 0.0
0.6720046167250797 -0.020579604775701428 0.04
0.6407079554435648 -0.019738458112036637 0.0
0.7171469290115033 0.021165332718839136 0.0
-0.7921016077200962 -0.06 0.04
-0.7604373514312079 -0.019298436119384588 0.0
-0.7479973317145423 -0.06 0.04
-0.7479973317145417 -0.06 0.0
0.7030120427199962 -0.06 0.0
0.7030120427199952 -0.06 0.04
0.6571281419012174 -0.06 0.04
0.7479973317145417 -0.06 0.04
0.7325903506195701 -0.020274227246539274 0.0
0.7176321617908783 -0.019839353713154383 0.04
0.7604373514312079 -0.019298436119384588 0.04
-0.8488906624897727 0.019856366527450334 0.04000000000000001
-0.8052789150181434 -0.019306901564895652 0.0
-0.805541091654972 0.020469431563422978 0.04000000000000001
-0.8203038938742353 -0.020636147377884773 0.04
0.897529295217204 0.022569895749215793 0.0
0.8488906624897727 0.019856366527450334 0.0
0.8569454102823642 0.029774901726562965 0.04
0.8777357995360431 0.06 0.0
0.9553815213922792 0.019675326217199102 0.0
0.95349853104827 0.02147987272312249 0.04
0.9103536180674616 -0.021283841161765512 0.0
-0.5450807564691462 -0.01715484187473429 0.04000000000000001
-0.5372746904547943 0.02439300391790418 0.04
-0.49049502097572617 0.000359712426279548 0.04000000000000001
-0.5409244119327052 -0.005150142234760652 0.0
-0.48901428549955095 -0.02776609156780287 0.019771763033692314
-0.4642419910175897 -0.06 0.04
-0.43891524330526177 8.673617379884035e-17 0.04000000000000001
0.7479973317145423 -0.06 0.0
0.9600486361512215 0.06 0.04
1.0 0.06 0.04
1.0 0.06 0.0
0.9192992165657531 0.06 0.0
0.7479973317145423 0.06 0.04
0.7309057796957548 0.02177174945441851 0.039999999999999994
0.7479973317145417 0.06 0.0
0.7613659684934695 0.020945326906433456 0.0
0.7736855084518748 0.020914979208800512 0.04
-0.8570647961856006 -0.015388027432140593 0.0
-0.8569454102823642 0.029774901726562965 0.0
-0.8649535140731797 -0.02016838668923704 0.039999999999999994
-0.1726925416005594 -1.214306433183765e-16 0.039999999999999994
-0.22806385632140147 1.0755285551056204e-16 0.039999999999999994
-0.2006519843784229 0.06 0.0
-0.22806385632140147 -1.1796119636642288e-16 0.0
0.438611990705585 -5.252150912499892e-05 0.04
0.41358849559293387 -0.06 0.04
0.4135884955929341 -0.06 0.0
0.4642419910175897 -0.06 0.0
0.4782715374234063 0.0302584611690398 0.019894876072988572
0.513903464641242 0.06 0.0
0.49049502097572617 0.000359712426279548 0.0
0.46424199101758934 0.06 0.0
0.46424199101758934 -0.06 0.04
-0.8164681441220105 0.022269284396602723 0.0
0.48912437490067595 -0.00041996788971368666 0.04
0.4642419910175897 0.06 0.04
-0.8353421249080566 0.06 0.04
0.8649535140731797 -0.02016838668923704 0.0
0.8973163514988121 0.02144006532192878 0.04
0.5625923446839085 0.06 0.04
0.6103276788742331 0.06 0.0
0.5943416245309461 0.018901239582525348 0.04
0.5790918012159274 0.021628695864523574 0.0
-0.593631917725493 -0.01946781888421301 0.04
-0.6103276788742336 -0.06 0.04
-0.6407079554435648 -0.019738458112036637 0.039999999999999994
-0.6264545933043166 -0.021459100211208025 0.0
-0.6103276788742331 -0.06 0.0
-0.6103276788742336 0.06 0.0
-0.6240641012293764 0.022292119262118645 0.04
-0.6414775595248179 0.020020515529780993 0.0
-0.5943416245309461 0.018901239582525348 0.0
-0.5790918012159274 0.021628695864523574 0.04000000000000001
-0.5625923446839077 0.06 0.04
-0.6103276788742331 0.06 0.04
-0.5625923446839085 0.06 0.0
-0.7325903506195701 -0.020274227246539274 0.039999999999999994
-0.7176321617908783 -0.019839353713154383 0.0
-0.7309057796957548 0.02177174945441851 0.0
-0.7736855084518748 0.020914979208800512 0.0
-0.7613659684934695 0.020945326906433456 0.04
-0.6571281419012174 0.06 0.04
-0.6719637381218919 0.02110482676547816 0.039999999999999994
-0.7030120427199952 0.06 0.04
-0.687851041884645 0.021313940245698455 0.0
-0.029521960903255984 -0.06 0.04
-0.05860957814939871 -6.938893903907228e-17 0.039999999999999994
-0.05860957814939863 5.898059818321144e-17 0.0
-0.08769719539554167 -0.06 0.0
-0.08769719539554144 -0.06 0.04
-0.2823507532564078 -5.204170427930421e-17 0.04
-0.25547572826437986 0.06 0.04
-0.25547572826438003 0.06 0.0
0.38751191920162714 6.938893903907228e-18 0.0
0.3352618020299945 -3.469446951953614e-18 0.0
0.36192316205531716 0.06 0.04
0.3619231620553172 0.06 0.0
-0.36192316205531716 0.06 0.0
-0.335244821032008 -1.1796296425746478e-06 0.0
-0.3352618020299945 -3.469446951953614e-18 0.039999999999999994
-0.38745316199969926 -7.894682722445895e-06 0.0
-0.3619231620553172 0.06 0.04
-0.3092257782484355 0.06 0.04
0.28235075325640757 5.551115123125783e-17 0.039999999999999994
0.30922577824843556 -0.06 0.0
0.335244821032008 -1.1796296425746478e-06 0.04
0.3092257782484355 -0.06 0.04
0.36192316205531716 -0.06 0.0
0.38745316199969926 -7.894682722445895e-06 0.04
0.3092257782484355 0.06 0.0
-0.38751191920162714 6.938893903907228e-18 0.04
-0.28235075325640757 5.551115123125783e-17 0.0
-0.30922577824843556 0.06 0.0
0.6103276788742336 -0.06 0.0
0.593631917725493 -0.01946781888421301 0.0
0.6264545933043166 -0.021459100211208025 0.04
0.4889627886584896 -0.027603176797077415 0.020155725176282127
0.583287522480325 -0.023728770665855194 0.039999999999999994
0.5450807564691462 -0.01715484187473429 0.0
0.5409244119327052 -0.005150142234760652 0.04
-0.48912437490067595 -0.00041996788971368666 0.0
0.3619231620553172 -0.06 0.04
-0.657128141901218 0.06 0.0
0.9600374798207896 -0.027590413451835553 0.0
1.0 0.0 0.04
0.9589620457797374 -0.028177574718636023 0.04
0.5625923446839077 -0.06 0.04
0.5625923446839085 -0.06 0.0
0.7766984080639845 -0.02052537972713625 0.0
-0.438611990705585 -5.252150912499892e-05 0.0
-0.583287522480325 -0.023728770665855194 0.0
-0.9600486361512215 0.06 0.0
-0.95349853104827 0.02147987272312249 0.0
-0.9192992165657539 0.06 0.0
-0.9192992165657531 0.06 0.04
-1.0 0.06 0.0
-0.14473309882269625 -0.06 0.04
-0.14473309882269605 -0.06 0.0
-0.11621514710911887 -1.214306433183765e-16 0.0
-0.17269254160055947 1.1796119636642288e-16 0.0
-0.14473309882269625 0.06 0.0
-0.11621514710911884 1.214306433183765e-16 0.039999999999999994
-0.8353421249080566 -0.06 0.0
-0.8353421249080575 -0.06 0.04
-0.8973163514988121 0.02144006532192878 0.0
-0.897529295217204 0.022569895749215793 0.04
0.11621514710911887 -1.214306433183765e-16 0.039999999999999994
0.05860957814939871 -6.938893903907228e-17 0.0
0.05860957814939863 5.898059818321144e-17 0.039999999999999994
0.08769719539554144 0.06 0.04
0.6103276788742336 0.06 0.04
0.5139034646412424 -0.06 0.0
0.9096368506350345 -0.020963842829632554 0.04
0.805541091654972 0.020469431563422978 0.0
0.8052789150181434 -0.019306901564895652 0.04
0.8203038938742353 -0.020636147377884773 0.0
0.08769719539554144 -0.06 0.0
0.08769719539554167 -0.06 0.04
0.9192992165657531 -0.06 0.04
0.8164681441220105 0.022269284396602723 0.039999999999999994
-0.9103536180674616 -0.021283841161765512 0.04000000000000001
-0.8777357995360431 -0.06 0.0
-0.9096368506350345 -0.020963842829632554 0.0
0.8570647961856006 -0.015388027432140593 0.04
0.7921016077200956 -0.06 0.04
0.8353421249080566 -0.06 0.04
0.7921016077200962 -0.06 0.0
0.4135884955929341 0.06 0.04
0.43891524330526177 8.673617379884035e-17 0.0
-0.7921016077200956 -0.06 0.0
-0.08769719539554144 0.06 0.0
0.14473309882269605 0.06 0.0
0.1726925416005594 -1.214306433183765e-16 0.0
0.11621514710911884 1.214306433183765e-16 0.0
-0.029521960903255984 0.06 0.0
0.0 0.0 0.0
0.17269254160055947 1.1796119636642288e-16 0.04
0.14473309882269625 0.06 0.04
0.0 0.0 0.04
0.2006519843784229 0.06 0.04
0.22806385632140147 -1.1796119636642288e-16 0.04
0.22806385632140147 1.0755285551056204e-16 0.0
-0.6720046167250797 -0.020579604775701428 0.0
-0.7030120427199962 -0.06 0.04
-0.7030120427199952 -0.06 0.0
0.25547572826438003 0.06 0.04
0.30922577824843556 0.06 0.04
0.25547572826437986 0.06 0.0
-0.02952196090325599 0.06 0.04
0.2006519843784232 -0.06 0.04
0.14473309882269605 -0.06 0.04
0.2006519843784229 -0.06 0.0
0.14473309882269625 -0.06 0.0
0.2823507532564078 -5.204170427930421e-17 0.0
-0.36192316205531716 -0.06 0.04
-0.41358849559293387 -0.06 0.0
0.5372746904547943 0.02439300391790418 0.0
0.5139034646412424 0.06 0.04
-0.5139034646412424 -0.06 0.04
0.41358849559293387 0.06 0.0
-0.7171469290115033 0.021165332718839136 0.04
-0.7479973317145417 0.06 0.04
-0.7030120427199962 0.06 0.0
0.08769719539554167 0.06 0.0
0.029521960903255984 -0.06 0.0
-0.02952196090325599 -0.06 0.0
0.02952196090325599 -0.06 0.04
0.02952196090325599 0.06 0.0
0.029521960903255984 0.06 0.04
-0.47805793986482265 0.03008719549728311 0.01940109733029794
-0.4642419910175897 0.06 0.0
0.6103276788742331 -0.06 0.04
1.0 -0.06 0.04
0.9600486361512205 -0.06 0.04
0.9600486361512215 -0.06 0.0
-0.3092257782484355 -0.06 0.0
0.877735799536044 -0.06 0.0
0.8777357995360431 -0.06 0.04
-0.41358849559293387 0.06 0.04
-0.4135884955929341 0.06 0.0
1.0 -0.06 0.0
1.0 0.0 0.0
-0.14473309882269605 0.06 0.04
-1.0 -0.06 0.0
-0.9600486361512215 -0.06 0.04
-1.0 -0.06 0.04
-0.7921016077200962 0.06 0.0
-0.9192992165657531 -0.06 0.0
-0.9600486361512205 -0.06 0.0
-0.7921016077200956 0.06 0.04
-0.7766984080639845 -0.02052537972713625 0.04
-0.5625923446839085 -0.06 0.04
-0.5625923446839077 -0.06 0.0
-0.877735799536044 -0.06 0.04
0.7921016077200962 0.06 0.04
-0.3619231620553172 -0.06 0.0
-0.7479973317145423 0.06 0.0
-0.8777357995360431 0.06 0.04
-0.4135884955929341 -0.06 0.04
-0.46424199101758934 -0.06 0.0
0.513903464641242 -0.06 0.04
-1.0 0.0 0.04
-0.877735799536044 0.06 0.0
-0.30922577824843556 -0.06 0.04
[...]
POINT_DATA 584
VECTORS displacement double
-0.00894893470661161 -0.04799183499271491 0.035195335027374
-0.004724350499773527 -0.0359516112686273 0.03630662819143916
-0.007505946281091497 -0.045349527738300546 0.03609494742907375
-0.008828041063794345 -0.041304690636010145 0.02762086189208776
-0.008697831201893111 0.024239917994125258 0.008041717616682384
-0.003109940656938524 0.030886159104228924 0.013671584698202533
-0.009820071686709097 0.02478748179859341 0.003920116600281376
-0.007570842832861588 0.02435597790104582 0.016547796563414395
-0.003465362769458342 0.03197573388346703 0.0047941222758181605
-0.002603364670150676 0.027902304138233736 -0.006886915540734247
-0.004855378273912411 0.03190626955996726 0.003957626158915221
-0.008669275045995968 0.019846852106623177 -0.006924014911127868
-0.008036311920032716 0.022073162121297556 0.01359631637194517
-0.0018989544024799118 0.03091979555899166 0.016286108483484503
-0.007181679016126564 0.024382671366302636 0.019809252417816902
-0.00887482716964761 0.01914563400078117 -0.0012789669073340498
0.014062147995614034 0.023430294949569493 0.022983474299000446
-0.0020191458270685373 0.015830693674032066 0.010243664063223398
0.012935688230268921 0.020940315072748506 0.01980771147869243
0.01059323332926074 0.015535579492027572 0.01807173240107473
-0.008848517985150007 0.01961657348117768 0.020260307127437253
-0.0032007694414888737 0.028192169375752404 0.020442915064253147
-0.003073587294054198 0.03410968634798342 0.025856002874900565
-0.005223764684267422 0.023850862965085633 0.01518048649644218
-0.0094416619655108 0.016124059215673975 0.006378132190893806
-0.0033273168806518846 0.028608666384974755 0.00884103043501208
-0.0035753288906411125 0.020017529472093468 0.001809755647563374
-0.0042962958408082515 -0.011058169211805751 0.01210303301948538
-0.004902732921718202 0.005061686818495323 0.015210871161477737
-0.003932159422876672 0.017810467457870034 0.0048405266258537295
-0.0009913949756209157 0.005595942424778888 0.01717385007834358
-0.009604053688424062 -0.04123553908495633 -0.03934704678692157
-0.009831581969783473 -0.022085309194896416 -0.027902345533229015
-0.0020149772344022028 -0.011041241324173836 -0.03322402639717301
-0.005585917494715106 -0.03379791848245178 -0.048598607343606985
-0.00927114532763935 -0.05728011333205624 -0.04914177245263661
-0.002306859362877073 -0.04059051705477916 -0.0495685238218549
-0.011763515106601364 -0.04490255456292917 -0.02478204981672595
-0.0051802702545598505 0.00858775597979172 -0.015736722875677064
-0.0021176883897245833 0.007614882792979154 -0.016414134893941404
-0.003565640302606717 -0.006231924141685745 -0.021132734030223598
-0.008526230835575698 0.0087013505838345 -0.015757039124157362
-0.00703792877055985 -0.003627255859445916 -0.023664716351999442
-0.0025936491181370014 -0.007959302233122746 -0.02978976906961828
-0.0016572201275178167 -0.023830271877826138 -0.025655754065686306
-0.010891827442691905 0.012277801739331051 0.014908277088224927
0.00045867068315923057 -0.04096366376924529 -0.06656986481606435
8.7270946790234e-05 -0.04797775810003507 -0.07407711754291688
-0.006504266946632227 -0.06457902993273218 -0.07393454687573939
-0.005668209377635245 -0.0480259072498859 -0.05842563462495249
-0.0002855775565338838 0.02315503545566726 -0.0180110582896846
-0.0027931620810396278 0.027484697208945547 -0.0036982952511148246
-0.006987938432539022 0.012619780330439211 -0.017849773120368014
-0.009505368100756872 0.009050753118837821 -0.010106043820562705
-0.003017811396042549 0.01747743331783721 -0.012557343501239517
-0.0076405324318953435 -0.019514828833150564 0.020956766459932913
-0.010564740253600229 -0.023557032491974043 0.010315147164969108
-0.0031667642232652464 -0.01237508235346902 0.023304273323228385
-0.00038252236718160814 0.0026924589192390404 -0.025646996802069354
-0.0001398471941273873 -0.017206209760245925 -0.028741042311336527
0.0009149445702240188 0.00363693502274853 -0.010985845653592344
0.000590021435190834 -0.006953591881095768 -0.028523652614293554
-0.00054693787744453 -0.021315678092356006 0.03455922859577597
0.0016333691296446641 -0.024666519593633102 0.030187342435808704
0.0014942065972837848 -0.0217622773433812 0.029346891126948438
0.0010129935980395712 -0.011495899772167913 0.030613607423442615
-0.0036311790728374427 -0.006131527664447559 0.03343681667698527
-0.006656084197136691 0.00380793704115131 0.030856986365463288
-0.0029467269236602427 -0.0023277945332423828 0.03177761840977592
-0.006041584670459424 -0.009133618029346039 0.03573210958151922
0.0015092941032672194 -0.01368643597436837 0.03152003874463054
-0.009495411025922962 -0.0019810961902737277 0.005543974039005676
-0.0017942313687567782 -0.003434052294953848 0.03252724748151453
-0.0026637755670195096 -0.009252173452895732 0.03449177220398624
-0.007659764855976781 -0.003195527115571269 -2.4027555084536267e-05
-0.012093327824159497 -0.028476636652445105 -0.016965758904399227
-0.002270985713093842 -0.02554017932688805 -0.03833574076998526
-0.0020603498806861494 0.01660959139321352 0.023489333528555756
-0.007930302509713874 0.02578167270012731 0.014986425822929203
-0.0013816752843838864 0.02295919318243164 0.021479117147522552
-0.0050277599635694635 0.017682618198030343 0.023154961990508514
-0.005708846044903027 0.031469129200346724 -0.006449189769238724
-0.0012928655019500712 0.03116453425792455 0.005871041785263036
-0.011628229952744228 0.034709208317333956 -0.00406709223947808
-0.0123985525773852 0.024678715029287958 -0.0019191781345622703
-0.006856895258413256 0.02493648857920928 0.003717399071360885
0.0008734613978294091 0.012937680952868923 -0.015222262571967984
-0.00684263334331545 0.023028545872612816 -0.011066687743007191
-0.010193907429354094 0.03223775735212353 -0.006920534762701025
-0.004945414856758743 0.017044172625336317 -0.012465403670930195
-0.00037181160445515693 0.020005963443645237 -0.012934364429733893
0.004409890021800122 0.02383904758392864 -0.017895597707583668
0.006492363684721017 0.012528802945138291 -0.013493464190983602
0.0010438781090083887 0.018022251561354476 -0.015272626952827372
-0.0010235709814287485 0.03621875524049245 0.005466759332359421
-0.00451619879139564 0.029262825254734698 0.008419675565048513
-0.004309943649311226 0.027449351186489654 -0.004630731561104388
-0.008043751272083483 0.013463575152964778 -0.0015678830621627226
-0.004058890552228988 0.03021344056751199 -0.0011377805463134041
0.016367821001595374 0.07035183903418148 -0.01523385113273303
0.0012445793793745908 0.05677339280650425 -0.008698135007207864
0.01700392363796948 0.009194850658140305 -0.015280791169865925
0.0015760276713693011 0.0343868145576119 -0.007305596545105187
0.003845730996176253 0.0505194460286481 -0.02974639429751223
0.0005837745170046586 0.03659035853209669 -0.0135430978584715
0.003467215724679042 0.049766304090253885 -0.0140131122404682
0.0045164220670573935 0.04387069209282407 -0.036606650745202286
0.0020744143467216246 0.031457860781609455 -0.0359439795061612
-0.0010870750309063706 -0.03321416255188446 -0.03065473580806672
-0.0010875844238425686 -0.025856354150329594 -0.014955042001264653
0.0007644166592226446 -0.016016849626771402 -0.014492687362278234
-0.00013699048314253813 -0.026538259802154615 0.03353652323815858
0.0011618395482454577 -0.034017446489443284 0.032831196912587096
-0.001992300900825253 -0.033966707857058236 0.040834750001881526
-0.0019199534412752467 -0.0291743205787407 0.040635832968914466
-0.0006746954094045675 -0.0291559496898643 -0.018995597152417297
-0.0017051822918881813 -0.028068384200482577 -0.030542155005185253
-0.001263889176515975 -0.03567204767762391 -0.03114630823728891
-0.003716576460343167 -0.02778771139630901 -0.028711982185450846
-0.0006579628571326653 -0.03663188426350174 -0.019296438151689025
0.00016230885926353996 -0.03567781687672825 -0.018110424352310122
0.0009421034202342064 -0.03049628551772251 0.029656740230361474
0.0015797383131450494 -0.030377089449929572 0.02100796024286217
-0.00021580328428941304 -0.04082013768639554 0.032392780629536946
-0.0006506407998613296 -0.03691385548019539 0.02213406305942104
0.002944955377599216 -0.02943305989889472 0.025796094834818154
-0.000570288837328597 -0.03036667037096546 0.03451028979805682
0.0029676083100836303 -0.02802174940834336 0.04169419028603574
-0.0023365990271071425 -0.03436796459725486 -0.029524964751694156
-0.000968617266497201 -0.023574098948302057 -0.029959808823727577
0.0011108124101973076 -0.0266237340360139 -0.016713500533375697
-0.00608730996491564 0.02041433940206547 0.028523737953586037
-0.005453849302065054 0.018792063532047938 0.025148665104348704
-0.0023141508149365393 0.028441441510352487 0.022135305445660603
-0.0016490495129721286 -0.003226550426738702 0.03196613053664523
-0.0015555297003975656 0.02109518209471439 0.02669440454919306
-0.00390566463315975 0.013056417108132063 0.029012489321085366
-0.0018221428912685751 0.013609478520090756 0.02936176052638031
-0.00665218869339867 -0.0033112177467775265 -0.02127202904683158
0.0018123073411114056 -0.03320142163122057 0.02657191251354338
0.00963422107827429 0.05230485154990757 -0.017752410885011363
-0.012159198563435442 -0.05834973234227561 -0.030682618018815652
-0.0036301019836523455 -0.04801734738448624 -0.04886014785684234
-0.005387186666776401 -0.04170701921257266 -0.030389620271162182
-0.0016665764446556956 0.01862417339675861 0.03078808716647093
-0.004563966128619427 0.01542564908328174 0.030856546660821684
-0.010290230829056012 0.0037859386883530716 -0.0008447915810563071
-0.004422898376321671 -0.01900200066998073 -0.02585508479420777
-0.0092081272717871 0.019720522694871154 -0.006924783895797846
-0.004315815158899016 -0.05110202441709672 0.02113250042011589
-0.012290004620061083 -0.047613349274783334 0.02726415873950217
-0.007140420474697119 -0.03883896776049724 0.012998345334187377
0.0009132397977985328 -0.03156076499092327 0.016904380969184053
-0.006786571043403864 -0.03458380538990965 0.027677700544503952
0.0027699016317208327 0.014792061682104828 -0.04101150223457935
0.004642980235939952 0.026289648859365404 -0.04061834873084993
0.0029316512208749867 0.03570472614473541 -0.02054744028604102
0.001311821745805346 0.014064777085778092 -0.025131145773784377
0.001847456704103452 0.024491754230417617 -0.005518091295366676
0.0003846198626807441 0.02330919181180305 -0.020146381642719275
0.011063447276056465 -0.010459491768789929 0.027871294578296416
0.015240719584901096 -0.00211852307221472 0.02859876426798564
-0.013701413603268358 -0.03501372296697715 0.019565724211031386
-0.008152660099432935 -0.02469795264757465 0.018875139085263243
0.0015959584771926617 0.028811947938207336 0.010671649550590684
0.005641075110901603 0.04864260294678541 0.0023811462888105785
0.0015875287590897643 0.03491790887130971 0.002448183304956691
0.003447545944024705 0.03275586093866302 0.025158151140675118
-0.004239140793771636 0.0319553370799846 0.014849779055726719
-0.0020141360697147202 0.004388979864181568 0.031446117497764055
-0.00468122488767219 -0.02933462035819463 -0.02456791585013316
-0.009553828732025592 -0.0061138210918578436 -0.019306181018220826
-0.004057045306246975 0.0067737513832961185 -0.006231256299743639
-0.010910041617436712 -0.012182140331252228 -0.00857312333798622
0.005017149003206954 0.0450504718293283 -0.011629439154462037
0.0010273839737390288 0.033278515178943396 -0.011837384113163821
-0.006418370323509412 -0.03148678499126085 -0.011240070302042852
-0.0026803808763476793 0.003371948733810602 -0.022051217844399992
-0.005037396317762619 -0.032828301165580484 0.029956299331625164
0.011301452484135846 -0.023108024341134823 0.03253249182464719
-0.008917067907223563 -0.04001722782235634 0.029865611163814258
-0.0047617653677710274 -0.01142764095139561 -0.01725893462293047
-0.006285967158445771 0.011581869142107104 0.00947278713568428
-0.0068607209886180414 -0.005107034957909499 0.001991580458245765
-0.012068206918556952 -0.0013110124311360137 0.00908185166815683
-0.0023323621413852396 -0.027728738218717734 0.03973454432782273
-0.0007181981143137079 -0.018756230885003763 0.03349361122692133
0.011145567594461968 0.012994408552630489 0.02278018791791157
0.0036554566231815416 0.04280209557185413 0.001186577265619468
0.009882060704897035 0.02702190674301935 0.031648280011902216
0.0047979364011891045 0.009714271337511375 0.017816769364046713
0.005553244961723309 0.04024644769835222 0.010406266661019072
0.004056511227378095 0.055902661416994404 0.008188677368496478
0.006401389567485714 0.06493970566248698 -0.00628378039927558
0.0010842931835007411 -0.0022625536565827322 0.017997630052786026
0.007186996004482266 0.016195605425082107 0.031021805092507498
0.0022277195805349053 0.05278690987962418 -0.00568012316462329
0.0054845081066696635 -0.011403747886801367 0.03616322209268879
0.001282374384494848 -0.019455241575370957 0.024194746645084395
0.0041122778311604175 -0.009733813742297967 0.02439559062011132
-0.006631708214542058 0.01963159014685924 0.005697356759645838
0.008014839549845408 0.03696535360721701 0.017043922151815636
0.006411641739619684 0.027646107864273014 0.016906274977544912
0.004147964528238715 -0.02072827000645012 0.04028568434731992
0.0019407765364922323 -0.034701888500841716 0.04154544506436157
0.005256297895935883 -0.013440925539066877 0.039631486233729946
1.100192157802156e-05 0.04330971251719089 0.008255498359665743
-0.001773955001263184 -0.010481388500937345 0.006445427326034161
-0.003410243596333402 0.015848893464037072 -0.001815268823334318
0.0024138881573226275 -0.0009291593839949201 0.00548725064213455
0.0011433362512404195 0.02649834904544156 -0.002978799067343064
0.002619757329203909 -0.022936782029723223 0.029439898680261024
-0.0002514807943921151 -0.03506460861695184 -0.0415676323605338
-0.004197761089175867 -0.025613448786774587 -0.03707377145829218
-0.004791738549308806 0.010466317647211556 0.027775223861192917
-0.0028865815311975153 0.0030321249073597856 0.030624739711231037
-0.005539867337894849 0.00033504509160629196 -0.02327051849568406
-0.003246816861619721 -0.023800953875635893 0.03928691052234521
-0.001302931780563927 0.05150578779198981 -0.003397020555010132
-0.007254789891786309 0.02079660901122105 -0.012981544383408672
0.005565030402385447 0.014581614401913539 -0.017076203995383718
0.007209406707782292 0.04443920346986116 0.02448270382366027
0.003916423223590871 0.05766065861603887 -0.021551658597672267
0.007340016035506792 0.0627075586876086 -0.02965805623739109
-0.0004654599214608783 0.04441358172022648 -0.021074552137567062
0.009585923679313733 0.05821091775235994 0.016795093952234406
0.0057097237775324 0.04587437200840034 0.017190517549802758
-0.0019032014218150315 -0.008606840184660734 -0.019940990266427806
-0.0003654603593883492 -0.011260084150225218 -0.018283227884097333
-0.002145341086187906 0.025225553894355632 0.02845165092889543
-0.007153351338748165 -0.046678886643489015 -0.02362643819977962
-0.00677573648168645 -0.042969490522812445 -0.0175084032454222
-0.013044221909696296 -0.05863204267642702 -0.017628393622128546
-0.00024285244420054524 -0.02837260012722638 -0.04400110875147806
-0.013091850262112662 -0.032313837021000213 -0.004423368270748452
-0.007087093598487473 -0.016808361972450545 -0.004423983956225548
-0.00012742472634372684 -0.028932341245918765 -0.020026392950368663
-0.0005485736529145684 -0.023283936470266164 -0.018419376106726813
-0.013424561379097855 -0.06340054744541451 -0.023793894620179716
-0.010491178251416714 -0.06444997297891732 -0.04883990180315285
-0.0014814037432100892 0.012923230368637975 -0.0057401304060696635
0.008512567066472078 -0.07195298244521578 0.04324268691514622
0.016535100388762262 -0.02740272587729562 0.04565077371910036
0.015412869882058882 -0.07545557344478553 0.0435819755865285
-0.011081864988892659 0.0069359530469466635 -0.011293663307381928
0.011571638700752814 -0.04543630331346274 0.0387953376767113
0.010262884274089765 -0.043600260926905055 0.04161582569101889
-0.0077765613873807095 0.016223237620949026 -0.009735683949340459
0.0012717659890503692 0.02283328764484681 0.010696597634534741
-0.006895007598205472 0.009302607243169324 -0.010981460963365572
-0.01137491994654617 0.009845383526136781 -0.010277224384339414
0.014923812307844288 -0.013435028811056708 0.032547135699514895
0.0004349027323066273 0.010483253321940403 -0.028647248130659605
-0.0019410150508382877 -0.027557849656081337 -0.0408515682209259
-0.007124420015104272 0.014502989793880006 -0.01299233355890806
-0.003042298750456812 -0.02372256308228554 0.007226106641595804
-0.0007080226546090929 -0.032210717152620354 -0.036747607671966616
-0.007901073299444795 -0.005705166825837839 -0.029225025617366944
-0.00014269039760223472 0.005937715514002328 0.031816591360365055
-0.008317327548800487 -0.037316162776479755 0.02643202106173785
-0.007783490796738316 -0.03194411771537319 0.0060777151182727215
0.0008145059475392299 -0.03781938572345721 -0.04392152589047725
0.002280939939303004 -0.02489949454106999 -0.04461305972506045
-0.0003899711162148248 0.031545960100558275 0.0002859297453607649
0.0025848289933643747 -0.014836389721382149 0.015353789764022789
0.0024096259273277887 -0.01499765660947353 -0.04438576883456274
0.0002609857227083115 -0.0552515716690798 0.025272599532849705
0.018813621112090152 -0.041760486975344166 0.03906015034954325
-0.0011380234444683499 0.0008464410569705332 -0.017001115694483072
-0.0013686977307364471 0.030870560352453853 0.00044020328810290385
-0.006222904495790519 -0.057715303137225005 -0.06658943390323398
-0.005220022797660551 -0.02735210174842834 0.03012901343833489
-0.0009545891344160503 0.0015441984265051783 -0.015782290887857323
-0.00045832141083831446 -0.014250971935836585 -0.01832484561043503
0.0027478752848186087 0.008353701708676423 0.013184323993242856
0.0016978712526251223 -0.019462634833662354 -0.04886682641989019
0.001392037440488208 -0.03242908187151962 -0.05798942949345502
-0.0007620397885096644 -0.02187785962823272 0.015513103005248491
-0.01295303828526593 -0.018783915787902682 0.0020510678014141644
-0.011210343437176638 0.0023155601625053012 -0.020857591596929015
-0.0014952788949777066 -0.0069846101381286895 -0.011099515289311709
-0.011290580939290392 -0.013692678058274326 -0.001602157186826177
-0.00630246003772072 -0.017288314349304085 -0.03907809359974383
0.0009588322647271754 -0.0035425957847231527 -0.039041774085455096
-0.0065128258667983404 -0.001911904759896002 -0.028971409131886214
-0.012863607834329717 -0.04763881830405928 -0.010948867068415184
-0.006348712620204502 0.014881920735072437 0.02314099951581642
0.008582175888535541 0.010513929350244174 0.012070607869510745
-0.007880746950808568 0.025429466723949752 0.02542539683254704
0.002899917271740851 -0.009273519080493939 -0.04374311269071603
0.0035533654713620602 0.0021797474402123606 -0.04385719445622626
0.007101483194993572 -0.001070926620120697 0.03751224292221852
0.01649213360163589 -0.025518268731292933 0.0356008256906405
-0.003692993391682896 -0.020708488963370065 0.03279141053970012
0.010130060500338767 -0.01154581611671019 0.04179032253374626
0.003657850590639055 0.016540127420082835 0.016374353790276273
-0.002012055306877717 0.018267026545926924 0.010683454522783431
0.004478020278437084 0.026741347029004083 0.0056094424713594715
0.002881786900408587 -0.002613457225800098 0.011062926894504114
0.0036719320381220243 -0.03505464670783246 -0.04546048608064513
0.003589996359647993 -0.019988202046289007 -0.0436936142362789
-0.000635486388690235 -0.027989868925464373 -0.028817573989939994
-0.002000615463532607 0.026217564484140334 -0.012240859116316914
0.007313041322933462 0.03163355282035393 -0.009317416956869596
-0.006646454051931569 0.020763254988096405 -0.007544967155543378
-0.0036807691835505675 -0.03937718252518219 0.03743168659099087
-0.0056666604837233145 -0.05324664547255266 0.02685016226069758
-0.01391494982411298 -0.033313361456147814 0.03922098879990754
0.017570035297022626 -0.01308157124750068 0.03201389102738055
0.0032324331213776894 -2.1057482262128725e-05 0.0209567320791702