# vtk DataFile Version 2.0
Really cool data
ASCII
DATASET UNSTRUCTURED_GRID
POINTS 584 double
-1.0 0.0 0.0
-0.9600374798207896 -0.027590413451835553 0.04
-0.9589620457797374 -0.028177574718636023 0.0
-0.9553815213922792 0.019675326217199102 0.04
0.6719637381218919 0.02110482676547816 0.0
0.6414775595248179 0.020020515529780993 0.04
0.6571281419012174 0.06 0.0
0.6240641012293764 0.022292119262118645 0.0
0.687851041884645 0.021313940245698455 0.04
0.7030120427199962 0.06 0.04
0.657128141901218 0.06 0.04
0.7030120427199952 0.06 0.0
0.6885310613992013 -0.0196061899732657 0.0
0.6720046167250797 -0.020579604775701428 0.04
0.6407079554435648 -0.019738458112036637 0.0
0.7171469290115033 0.021165332718839136 0.0
-0.7921016077200962 -0.06 0.04
-0.7604373514312079 -0.019298436119384588 0.0
-0.7479973317145423 -0.06 0.04
-0.7479973317145417 -0.06 0.0
0.7030120427199962 -0.06 0.0
0.7030120427199952 -0.06 0.04
0.6571281419012174 -0.06 0.04
0.7479973317145417 -0.06 0.04
0.7325903506195701 -0.020274227246539274 0.0
0.7176321617908783 -0.019839353713154383 0.04
0.7604373514312079 -0.019298436119384588 0.04
-0.8488906624897727 0.019856366527450334 0.04000000000000001
-0.8052789150181434 -0.019306901564895652 0.0
-0.805541091654972 0.020469431563422978 0.04000000000000001
-0.8203038938742353 -0.020636147377884773 0.04
0.897529295217204 0.022569895749215793 0.0
0.8488906624897727 0.019856366527450334 0.0
0.8569454102823642 0.029774901726562965 0.04
0.8777357995360431 0.06 0.0
0.9553815213922792 0.019675326217199102 0.0
0.95349853104827 0.02147987272312249 0.04
0.9103536180674616 -0.021283841161765512 0.0
-0.5450807564691462 -0.01715484187473429 0.04000000000000001
-0.5372746904547943 0.02439300391790418 0.04
-0.49049502097572617 0.000359712426279548 0.04000000000000001
-0.5409244119327052 -0.005150142234760652 0.0
-0.48901428549955095 -0.02776609156780287 0.019771763033692314
-0.4642419910175897 -0.06 0.04
-0.43891524330526177 8.673617379884035e-17 0.04000000000000001
0.7479973317145423 -0.06 0.0
0.9600486361512215 0.06 0.04
1.0 0.06 0.04
1.0 0.06 0.0
0.9192992165657531 0.06 0.0
0.7479973317145423 0.06 0.04
0.7309057796957548 0.02177174945441851 0.039999999999999994
0.7479973317145417 0.06 0.0
0.7613659684934695 0.020945326906433456 0.0
0.7736855084518748 0.020914979208800512 0.04
-0.8570647961856006 -0.015388027432140593 0.0
-0.8569454102823642 0.029774901726562965 0.0
-0.8649535140731797 -0.02016838668923704 0.039999999999999994
-0.1726925416005594 -1.214306433183765e-16 0.039999999999999994
-0.22806385632140147 1.0755285551056204e-16 0.039999999999999994
-0.2006519843784229 0.06 0.0
-0.22806385632140147 -1.1796119636642288e-16 0.0
0.438611990705585 -5.252150912499892e-05 0.04
0.41358849559293387 -0.06 0.04
0.4135884955929341 -0.06 0.0
0.4642419910175897 -0.06 0.0
0.4782715374234063 0.0302584611690398 0.019894876072988572
0.513903464641242 0.06 0.0
0.49049502097572617 0.000359712426279548 0.0
0.46424199101758934 0.06 0.0
0.46424199101758934 -0.06 0.04
-0.8164681441220105 0.022269284396602723 0.0
0.48912437490067595 -0.00041996788971368666 0.04
0.4642419910175897 0.06 0.04
-0.8353421249080566 0.06 0.04
0.8649535140731797 -0.02016838668923704 0.0
0.8973163514988121 0.02144006532192878 0.04
0.5625923446839085 0.06 0.04
0.6103276788742331 0.06 0.0
0.5943416245309461 0.018901239582525348 0.04
0.5790918012159274 0.021628695864523574 0.0
-0.593631917725493 -0.01946781888421301 0.04
-0.6103276788742336 -0.06 0.04
-0.6407079554435648 -0.019738458112036637 0.039999999999999994
-0.6264545933043166 -0.021459100211208025 0.0
-0.6103276788742331 -0.06 0.0
-0.6103276788742336 0.06 0.0
-0.6240641012293764 0.022292119262118645 0.04
-0.6414775595248179 0.020020515529780993 0.0
-0.5943416245309461 0.018901239582525348 0.0
-0.5790918012159274 0.021628695864523574 0.04000000000000001
-0.5625923446839077 0.06 0.04
-0.6103276788742331 0.06 0.04
-0.5625923446839085 0.06 0.0
-0.7325903506195701 -0.020274227246539274 0.039999999999999994
-0.7176321617908783 -0.019839353713154383 0.0
-0.7309057796957548 0.02177174945441851 0.0
-0.7736855084518748 0.020914979208800512 0.0
-0.7613659684934695 0.020945326906433456 0.04
-0.6571281419012174 0.06 0.04
-0.6719637381218919 0.02110482676547816 0.039999999999999994
-0.7030120427199952 0.06 0.04
-0.687851041884645 0.021313940245698455 0.0
-0.029521960903255984 -0.06 0.04
-0.05860957814939871 -6.938893903907228e-17 0.039999999999999994
-0.05860957814939863 5.898059818321144e-17 0.0
-0.08769719539554167 -0.06 0.0
-0.08769719539554144 -0.06 0.04
-0.2823507532564078 -5.204170427930421e-17 0.04
-0.25547572826437986 0.06 0.04
-0.25547572826438003 0.06 0.0
0.38751191920162714 6.938893903907228e-18 0.0
0.3352618020299945 -3.469446951953614e-18 0.0
0.36192316205531716 0.06 0.04
0.3619231620553172 0.06 0.0
-0.36192316205531716 0.06 0.0
-0.335244821032008 -1.1796296425746478e-06 0.0
-0.3352618020299945 -3.469446951953614e-18 0.039999999999999994
-0.38745316199969926 -7.894682722445895e-06 0.0
-0.3619231620553172 0.06 0.04
-0.3092257782484355 0.06 0.04
0.28235075325640757 5.551115123125783e-17 0.039999999999999994
0.30922577824843556 -0.06 0.0
0.335244821032008 -1.1796296425746478e-06 0.04
0.3092257782484355 -0.06 0.04
0.36192316205531716 -0.06 0.0
0.38745316199969926 -7.894682722445895e-06 0.04
0.3092257782484355 0.06 0.0
-0.38751191920162714 6.938893903907228e-18 0.04
-0.28235075325640757 5.551115123125783e-17 0.0
-0.30922577824843556 0.06 0.0
0.6103276788742336 -0.06 0.0
0.593631917725493 -0.01946781888421301 0.0
0.6264545933043166 -0.021459100211208025 0.04
0.4889627886584896 -0.027603176797077415 0.020155725176282127
0.583287522480325 -0.023728770665855194 0.039999999999999994
0.5450807564691462 -0.01715484187473429 0.0
0.5409244119327052 -0.005150142234760652 0.04
-0.48912437490067595 -0.00041996788971368666 0.0
0.3619231620553172 -0.06 0.04
-0.657128141901218 0.06 0.0
0.9600374798207896 -0.027590413451835553 0.0
1.0 0.0 0.04
0.9589620457797374 -0.028177574718636023 0.04
0.5625923446839077 -0.06 0.04
0.5625923446839085 -0.06 0.0
0.7766984080639845 -0.02052537972713625 0.0
-0.438611990705585 -5.252150912499892e-05 0.0
-0.583287522480325 -0.023728770665855194 0.0
-0.9600486361512215 0.06 0.0
-0.95349853104827 0.02147987272312249 0.0
-0.9192992165657539 0.06 0.0
-0.9192992165657531 0.06 0.04
-1.0 0.06 0.0
-0.14473309882269625 -0.06 0.04
-0.14473309882269605 -0.06 0.0
-0.11621514710911887 -1.214306433183765e-16 0.0
-0.17269254160055947 1.1796119636642288e-16 0.0
-0.14473309882269625 0.06 0.0
-0.11621514710911884 1.214306433183765e-16 0.039999999999999994
-0.8353421249080566 -0.06 0.0
-0.8353421249080575 -0.06 0.04
-0.8973163514988121 0.02144006532192878 0.0
-0.897529295217204 0.022569895749215793 0.04
0.11621514710911887 -1.214306433183765e-16 0.039999999999999994
0.05860957814939871 -6.938893903907228e-17 0.0
0.05860957814939863 5.898059818321144e-17 0.039999999999999994
0.08769719539554144 0.06 0.04
0.6103276788742336 0.06 0.04
0.5139034646412424 -0.06 0.0
0.9096368506350345 -0.020963842829632554 0.04
0.805541091654972 0.020469431563422978 0.0
0.8052789150181434 -0.019306901564895652 0.04
0.8203038938742353 -0.020636147377884773 0.0
0.08769719539554144 -0.06 0.0
0.08769719539554167 -0.06 0.04
0.9192992165657531 -0.06 0.04
0.8164681441220105 0.022269284396602723 0.039999999999999994
-0.9103536180674616 -0.021283841161765512 0.04000000000000001
-0.8777357995360431 -0.06 0.0
-0.9096368506350345 -0.020963842829632554 0.0
0.8570647961856006 -0.015388027432140593 0.04
0.7921016077200956 -0.06 0.04
0.8353421249080566 -0.06 0.04
0.7921016077200962 -0.06 0.0
0.4135884955929341 0.06 0.04
0.43891524330526177 8.673617379884035e-17 0.0
-0.7921016077200956 -0.06 0.0
-0.08769719539554144 0.06 0.0
0.14473309882269605 0.06 0.0
0.1726925416005594 -1.214306433183765e-16 0.0
0.11621514710911884 1.214306433183765e-16 0.0
-0.029521960903255984 0.06 0.0
0.0 0.0 0.0
0.17269254160055947 1.1796119636642288e-16 0.04
0.14473309882269625 0.06 0.04
0.0 0.0 0.04
0.2006519843784229 0.06 0.04
0.22806385632140147 -1.1796119636642288e-16 0.04
0.22806385632140147 1.0755285551056204e-16 0.0
-0.6720046167250797 -0.020579604775701428 0.0
-0.7030120427199962 -0.06 0.04
-0.7030120427199952 -0.06 0.0
0.25547572826438003 0.06 0.04
0.30922577824843556 0.06 0.04
0.25547572826437986 0.06 0.0
-0.02952196090325599 0.06 0.04
0.2006519843784232 -0.06 0.04
0.14473309882269605 -0.06 0.04
0.2006519843784229 -0.06 0.0
0.14473309882269625 -0.06 0.0
0.2823507532564078 -5.204170427930421e-17 0.0
-0.36192316205531716 -0.06 0.04
-0.41358849559293387 -0.06 0.0
0.5372746904547943 0.02439300391790418 0.0
0.5139034646412424 0.06 0.04
-0.5139034646412424 -0.06 0.04
0.41358849559293387 0.06 0.0
-0.7171469290115033 0.021165332718839136 0.04
-0.7479973317145417 0.06 0.04
-0.7030120427199962 0.06 0.0
0.08769719539554167 0.06 0.0
0.029521960903255984 -0.06 0.0
-0.02952196090325599 -0.06 0.0
0.02952196090325599 -0.06 0.04
0.02952196090325599 0.06 0.0
0.029521960903255984 0.06 0.04
-0.47805793986482265 0.03008719549728311 0.01940109733029794
-0.4642419910175897 0.06 0.0
0.6103276788742331 -0.06 0.04
1.0 -0.06 0.04
0.9600486361512205 -0.06 0.04
0.9600486361512215 -0.06 0.0
-0.3092257782484355 -0.06 0.0
0.877735799536044 -0.06 0.0
0.8777357995360431 -0.06 0.04
-0.41358849559293387 0.06 0.04
-0.4135884955929341 0.06 0.0
1.0 -0.06 0.0
1.0 0.0 0.0
-0.14473309882269605 0.06 0.04
-1.0 -0.06 0.0
-0.9600486361512215 -0.06 0.04
-1.0 -0.06 0.04
-0.7921016077200962 0.06 0.0
-0.9192992165657531 -0.06 0.0
-0.9600486361512205 -0.06 0.0
-0.7921016077200956 0.06 0.04
-0.7766984080639845 -0.02052537972713625 0.04
-0.5625923446839085 -0.06 0.04
-0.5625923446839077 -0.06 0.0
-0.877735799536044 -0.06 0.04
0.7921016077200962 0.06 0.04
-0.3619231620553172 -0.06 0.0
-0.7479973317145423 0.06 0.0
-0.8777357995360431 0.06 0.04
-0.4135884955929341 -0.06 0.04
-0.46424199101758934 -0.06 0.0
0.513903464641242 -0.06 0.04
-1.0 0.0 0.04
-0.877735799536044 0.06 0.0
-0.30922577824843556 -0.06 0.04
[...]
POINT_DATA 584
VECTORS displacement double
0.003821076000173217 0.003964049557488461 0.005713782392417558
0.005684641894208534 -0.003208084993473132 0.0016394635431491032
0.0022161007251446057 0.0013340491605182013 0.001676081161177721
0.013360027223660025 0.0019343198313439658 0.004066473547297929
0.0030034997520291427 0.028001752327641793 -0.004690924626406138
0.003154465330443791 0.0072603863749646155 -0.0009502363100288308
0.009269022477910997 0.025345904405220533 0.014438043503218216
0.0006674572137539458 0.020735417599628277 0.002276111461022549
0.006433105118198017 0.011676529563550019 -0.00787576121852979
0.00593394498806204 0.02316044352128065 0.009202205302227923
0.011800005126490678 0.006138984927053808 0.014884610768640043
0.006581426233786103 0.039110374216949434 0.010660680980601012
-0.011324844370763953 0.028527933017966984 -0.02369915478596789
-0.0110937660789658 0.0134333696490758 -0.02342294722946161
-0.01259769513583752 0.023574589762821146 -0.016608180153354926
0.00252647680481416 0.03615686271250878 -0.00725399694499072
-0.017278496641204212 -0.011507345520261288 -0.008466756587114157
-0.008744744036073084 0.025290982485703276 -0.004868017685212252
-0.016555499091494886 0.040800734152148216 -0.011512732557522996
-0.020347540857670647 0.03812610813393948 -0.009804771886954791
-0.007796288219166441 0.024377307257832534 -0.044699992007027095
-0.007394358242829885 0.006354840543990543 -0.04619950790631845
-0.005954089756280469 0.00935522063667608 -0.03749238172316999
0.005211570262567392 0.02467225603356064 -0.042353023972548406
-0.01527804667997538 0.02820278243151702 -0.02731288711743224
-0.01212726431453771 -0.0013467273054842811 -0.027166250366048725
-0.017061645932358576 0.018902667774330036 -0.023125334174391554
0.0070963262705100935 -9.256781371878548e-05 0.0036456450562447566
-0.0012074308946991874 0.0035538641500764932 -0.002955609325349781
0.0060170745216471715 -0.005299433132976892 0.0035252506007348696
0.0012142365038955824 -0.001101521693287175 -0.002718891580608799
0.01242306689626674 -0.036901975190183275 -0.009104731618940735
0.007030243611109599 0.00883452730194888 -0.011445101837923981
0.00501077254927064 0.0073361861463233985 -0.007725998626490235
0.029612725812898755 -0.02473679738700064 -0.012613894183820074
0.016678632113571314 -0.02030031921232466 0.010431424621434942
0.00614817821241044 0.004673457111733025 0.008388320125504155
0.00669361550851134 -0.035576912508288844 0.0025205693002968363
0.00589081734464175 0.0003258161995069021 0.0013495554973629157
0.004309988771645584 -0.0008683689975750914 -0.0142656214868152
0.004931587100383159 -0.00424896966378948 0.0028887432880079023
0.009043594468285539 -0.016984012000270245 -0.0038891564715872193
0.004165636021596726 -0.012705431764334751 0.014363196081814755
5.2660974169509275e-05 -0.007590679211967694 0.031839464221353656
0.002695038448553957 -0.01346131976277863 0.01274107114119703
0.0005503988261683616 0.035706754635731135 -0.04105620501060269
0.011250315921844119 0.012828578057799557 -0.015075713659478539
0.002576079196369013 -0.027152590812978234 -0.012504153927741988
0.01776455416287236 -0.05541611630116115 -0.009483324623448685
0.024722253066515938 -0.03651509210425314 -0.019794472833966622
0.00601086690112869 0.019664982496740913 0.005625318801735999
0.00020306046743333403 0.02433382246473533 -0.011175382559184984
0.0085324299221871 0.034661686260388055 0.0029456832575504516
0.002537977362807372 0.029696984620930327 -0.011090588018825998
0.003127779042648517 0.008570669413898533 -0.012142899694625819
0.002435596669608318 -0.0002750605547867913 -0.00046671213766175026
0.008476457671221913 0.005880076501336154 0.006863812122340967
0.003927704239425459 -0.007531723203463642 -0.0011510471819046188
-0.000402978712397002 0.0034185707764879834 0.004249041248324209
0.00074496636687396 0.014061768151301232 0.014546075347033218
0.004885039738088096 0.0272148703026444 0.03167016561794396
-0.002730493805891672 0.026796624335744475 0.013744491555934544
-0.004196037361619166 0.00499881701375992 0.021636234383166263
-0.007336118148244278 -0.00220167376758848 0.04033196614022456
-0.007489697386993591 -0.014974803433680451 0.03845873479492325
-0.012247676600667922 -0.008658866648597776 0.03117312327562083
0.004011018007798109 -0.002950343725404188 0.016980883170760006
0.00888942835554655 0.0006396819200265273 0.014546968976985616
-0.006550491063910055 -0.0041558797890955766 0.01801192147246794
0.012610465979497758 -0.00611990128662407 0.011527541521052254
-0.00986413241067556 -0.0021226750996376736 0.029191489009321756
0.007099503897804499 0.006238148971617049 0.006007431920145003
-0.003965364608807186 -0.00035348578315000444 0.017897142503657437
0.008700374819833392 -0.004174403944033738 0.014835484407037781
0.010928903905311631 0.0006795026446315975 0.011182720000775028
-0.01030305061593994 0.002965129809275546 -0.01414578491258504
0.007721768344139739 -0.02645791967047689 -0.0011859274105571606
0.006768573407586793 0.005865310382650619 0.015857233218711783
0.007092617070473974 0.013425675637644985 0.01419062965967022
-0.0007391935903506014 0.009221767561768535 0.005486407833734438
-0.003580137904782146 0.014630922259691906 0.008273815459624512
0.007031477630862215 -0.024940120629987537 -0.008485715656602385
-0.004873787062849339 -0.020791443643601817 -0.008206594089050208
0.016495246419089622 -0.005983313475506016 -0.008428864344728443
0.012751222971364507 -0.018217256617129165 -0.012136531666708182
-0.0010294346012249128 -0.0272114176535646 -0.0055340002224740165
-0.0056795438464569215 -0.013332186526162847 -0.03055739983128494
0.008971771733042975 -0.0018404279436485542 -0.017257836539135468
0.007650373446045588 -0.02595467162580526 -0.02144756844695616
0.003159441412171653 -0.02193711990335124 -0.016597157745433567
0.0008722311430880414 -0.011784555720797977 -0.017905321882627674
-0.006461120909459784 -0.019435748974893887 -0.02849960805250774
-0.009715093524292073 0.004996610276000323 -0.03287330912641075
-0.0036331562691826673 -0.029385020485938544 -0.031166041904102635
0.0009398884083296226 0.022764196829969666 -0.0067647918859895986
-0.002425310921725302 0.015567092021333424 -0.012283211245770085
-0.007407044628882733 0.022092626655961064 -0.0024884886764733063
0.005198711603925397 0.022075186795198275 0.007179637123768221
0.0055383896002224155 0.012751626496997211 0.00020600302682825138
-0.02777558796084218 -0.062432490732517616 -0.023076285528633257
-0.00569010694992046 -0.03634684929882852 -0.014361302290483144
-0.030017301204491902 0.053731538505075255 -0.011302392953012884
-0.013740083991279873 -0.008846930850946292 -0.010841592933899385
-0.008269725050832089 -0.002741483144425539 -0.04014430333785073
-0.0019904366091641527 0.012155809430531864 -0.016388776945809206
-0.003543712863408243 0.027238222610528346 -0.01524824262330047
-0.005516754678076366 0.024572255851132818 -0.035846322073854756
-0.005581785103403645 0.006006685604528674 -0.039312666846445514
0.0007404751875675599 -0.007092345636643442 0.02032697694806982
0.0030193572081726057 0.008583023155059035 0.03012839897778921
0.0038757233862123926 0.015875176818920745 0.03234231035371242
-0.0017123887760101069 -0.02551505183803396 0.022182555154712152
-0.0016286584491444736 -0.021158252849737935 0.016410407712816266
0.013753331214573762 -0.017447051772345113 -0.0003316686773126501
0.015680988759301392 -0.03074817328677844 -0.0018315130637680589
0.00561576798781585 -0.001544432846283881 0.013025324384556463
0.003422119523257674 0.003538319160058509 0.020454562990659474
0.0011927283289746978 0.007961710714063415 0.02050202644296077
0.006113379668324167 -0.018077850021828833 0.019073980313851525
0.0017852592156580756 0.006133885676083666 0.011563779539100616
0.007140908420325956 -0.004210734353101227 0.023363237915209327
-0.0023203884721516624 -0.013857114796333333 0.01059395309590953
-0.0035800151052266214 -0.023240176821770438 0.03834850559751089
-0.0023632754223606384 -0.0029180850115865602 0.01874341813370032
-0.004266274982620455 -0.006106553161508086 0.03868407344454734
-0.008224655309513504 -0.028679435594483223 0.042607830309581846
-0.003417219415776778 -0.013424868726973727 0.021637468258163192
0.01224146174277701 -0.025479031142434935 -0.010602599962809567
0.004300881745047419 -0.011122476039755106 0.019048957835504157
-7.48609332292324e-05 3.166934347385493e-05 0.019401898042621844
0.010486690751535143 -0.0002775747428482525 0.026366760739929263
-0.011708524958492946 0.021081985179062186 -0.02247335803970786
-0.01168767719188113 0.020477704737978494 -0.004914111879859184
-0.009694389101785333 0.005008940600933955 -0.013705176139886994
-0.009438478279624251 -0.0030040667716899356 0.021176681250152724
-0.009377552742677604 0.009155652901737595 -0.003115298354557747
-0.010609260661413726 0.0018665473005328264 0.007520847111642604
-0.00548470945068747 -0.0029926462643921426 0.010360459665423755
0.00799995501800317 -0.01974280005641669 0.002925949168921903
-0.00941250198522125 -0.01574556770946107 0.04222515698454177
-0.02413586616389231 -0.05086776510126004 -0.017449161013726178
0.018864801508379596 -0.021625452607990366 0.03789117301182943
0.008562405129882041 -0.03528113569191436 0.041453524632136814
-0.00045807496960488157 0.005113170828403222 0.0329526260752131
-0.00752608076461656 0.0010313578857368392 -0.003042453303081579
-0.009935747714802027 0.007643594686437644 -0.004238560204408711
-0.013037831338194425 0.03873330645559751 -0.02890442476091021
0.0055623132202789185 -0.028371147577872506 0.011537780111711924
0.008068144360439893 -0.027582871236123702 -0.007297644393982087
0.000973861787248475 0.008978850243784003 0.00689424385600348
0.011226819512221159 0.0036593432432322787 0.004068655300320307
0.005576779071562033 -0.002870250564091756 0.01153264919954226
-0.0006324485098264699 -0.006676920262448264 0.004412641563917473
0.004964160882713587 -0.016889430056754907 0.004787221662104423
-0.004640252059153896 0.005862680088811123 -0.02865360622230203
-0.007628236310862794 0.02498222550042483 -0.028452415902873226
-0.002768082707484159 0.02756809525200064 -0.006601830542384257
-0.003669401490479637 0.02105588203787965 0.003777001603606643
0.0016043689747721021 0.02155181088886705 0.02510829529682792
0.0005170543213706641 0.009450425116785892 -0.0065702464992968635
-0.019841917492228023 0.0027652857798374526 -0.006225657697002742
-0.018457690606265096 -0.0007830016708129094 -0.007502081038388306
0.012300540058482329 -0.0019129313026401919 0.0035392955092812825
0.01240797752624561 -0.01017842760591491 0.004433282136426193
-0.0022289616152124203 -0.029009713997426807 -0.0192182719200037
-0.0017356428837485285 0.03246966891574718 -0.023736558834716114
-0.002118041167672528 0.029477979263969143 -0.023730271819133154
0.010900797753316769 0.004584967135291579 -0.020317947297655833
0.00967501845210791 -0.0024333103283662835 0.017079546188372936
-0.011861162633003524 -0.0016460710776691528 0.017409569592439594
0.0009552667284407155 -0.03626190961840959 0.00902823439128946
0.0031120472869239323 0.015553624754909684 -0.013812673396586555
0.0004241492181893415 0.0018466082511110094 -0.022665444402128428
0.00404415425609537 0.006416104401328906 -0.02557393671864127
-0.007061380174676855 0.0063939697927879 -0.02169721263847568
-0.012221483354023828 0.004351145372162303 -0.024075921706167656
0.05076858720887052 0.005279617117178315 0.013951731250777245
-0.0027199220726648763 0.008881756567001794 -0.013037340446094503
0.006713535220965063 -0.003574818597897327 -0.0008105378923785982
-0.0217109899238413 -0.008118581975663723 -0.0033842627256988416
0.004831694773399344 -0.0007643001384691407 -0.0005168965544627543
-0.016079319755587643 -0.007227645895353462 -0.015192223151530656
0.012181166434432853 0.05728000801972532 -0.03711660922716961
0.021465540753571693 -0.029562226622727023 -0.04050081122312187
0.014088631010580914 0.05744454732909954 -0.03486182713033912
0.009959179025567977 0.002587093225954777 0.005549286964968469
-0.005117268698266299 -0.004596102134182236 0.02235850661980138
-0.020715275821183127 -0.0021011149001277703 -0.008362282967153366
0.0012211455553020425 0.03121496495061301 0.014881937292211753
-0.002930742612299128 -0.026339514597213436 -0.02463853705452918
0.001289587970082557 -0.004536631744241977 -0.009951958341813285
-0.0001105674191182391 -0.03004333802945863 -0.018439996682855498
0.0019750830158885204 0.021702471849495985 0.0034632299935202886
-0.005349429359620574 0.012587544535114237 -0.020725699080663667
-0.001486313553497189 0.007779322359834151 -0.01016601294174904
-0.0062895941118503934 -0.022410521856814695 -0.020958617812352892
-0.003340734861467094 -0.0001772800111557374 -0.022803942018029537
0.0031497418274702618 0.006955514417562718 -0.024084241286488672
-0.0031204132256141674 -0.002358727569330371 0.000395932688272524
-3.902787821373527e-05 -0.018650239997803162 9.176334938946381e-05
0.00273938773214124 0.007178000454475321 -0.01751852240286521
-0.012535856493878944 0.008007123478107671 -0.0164613778363691
-0.017632465508656072 0.01001306686264007 -0.015445785254327174
0.00505825016659564 -0.025737041105490802 -0.017844357574529467
0.007314828178014026 -0.007860815429908718 -0.01076093586467697
0.01278541302160389 -0.038008269140522355 -0.018462295724687473
0.004811392272316703 0.006025995454474295 0.004082225170223571
-0.0029378311887215073 0.0022002314742897463 0.015504550491590583
0.006893778893455151 -0.02197523493072074 -0.00947043873101766
-0.0019272742536955508 -0.009631853336806833 0.014572176124238159
0.00797278373267862 -0.025802426983812472 -0.004791638412021922
0.0005514320860739628 -0.030804287334491025 0.01000032129337564
-0.000751553886558083 -0.0018599896629755645 0.029370641929127885
-9.313925415763038e-05 -0.022605444883874476 0.030799957077352846
-0.0010474098968571066 0.001504107085848258 0.013643223827832734
0.009436683974188897 0.001448477931394591 0.014737704040402044
0.002506381733201723 -0.002102785970325055 0.0252186399743337
0.011092962750004048 -0.010158858223295987 0.005361462469298484
-0.002296108503019323 -0.008787332455533746 -0.010536409705580934
0.007363925487433135 0.055486842746055615 0.006567958371077306
-0.020228047085190763 0.030241004405305496 -0.005730165393486296
0.008937581893517843 0.006797791670115999 -0.021825243511212327
0.000251885731456296 0.026018123061802942 -0.0352771418078814
-0.008237505985126325 0.011939654756284127 -0.03835693020777622
-0.0013509985821256875 0.018471191368033428 -0.03774627227257745
-0.004663071709679433 0.023567259068149615 -0.00994265299697701
-0.0026599841656538385 0.015229928436533346 -0.010432541348622185
0.0057001535103924535 -0.01207505417161592 -0.0074728743621262335
0.00701382192466823 -0.02143691781923177 -0.015441537777260705
-0.010176746599054941 0.007824004380388484 -0.0229101024024997
0.02401822443604704 0.0205164158509407 0.09728177435963958
0.03792374936363898 -0.03020968918416157 0.04623912464448569
0.06116393894161192 -0.03160298810066251 0.05080094314665613
-0.010055305683680398 -0.0030359976236780184 0.016546581376520604
0.04039966857332296 0.023203212859384818 -0.0025837480659052494
0.023356846236654957 0.04421481610652008 -0.0026924433463933264
0.0031214327116320362 -0.019041986067860475 -0.0029449310232507755
0.007999491469897367 -0.0290653297484138 0.0001530071834784644
0.04776237659454144 -0.01611152089176451 0.0843946541714188
0.015686344548000834 -0.05925739088082494 0.036114427457608574
0.0038938589719118137 0.001337586740899307 0.026737328843900097
-0.016297286300601455 0.03649053409287563 0.0062951134252641735
-0.023327697003311335 -0.01959271492143712 -0.005930346426890848
-0.020080583537859135 0.04888618326527739 0.004315119976957529
0.008793813450688187 0.015729096567117413 0.017661598555392302
-0.02451256858941191 0.005229551852177881 -0.0033135864011315103
-0.020760423862960627 -0.0026322589012212146 0.0012837539919202383
0.011737121563495136 0.011522031538913808 0.014842747868444797
-0.005946048981756575 0.010555203352038203 -0.003943594338247199
0.004785198811571513 0.002538844799800202 0.013154747740313914
0.00823998288413521 -0.015570525953270693 0.01178105859208504
-0.019542427305043054 -0.014925593626674772 -0.004115233455711735
-0.0011784017263159882 0.019382126175222118 -0.0034813768258257706
-0.0014312382260751432 -0.006372644179815011 0.027157809750107537
-0.00044184599011418124 0.047767966645017715 0.0045956370357753875
0.004713459261773532 0.0006268798940031909 0.009827583105276549
0.0007469371938181513 -0.010182420052353355 0.0360164018864818
0.0029504342511305352 -0.024984742573423927 0.03172410026986663
-0.008359961893952118 -0.0008289891001369893 0.016395814069677817
0.0106697786541098 -0.0035415158088829227 0.01879673596196025
0.004098312965200912 0.0048535947649745075 0.012214140896999093
-0.007876309984066961 -0.006707316007407777 0.02086196965384795
-0.0035283599631238567 0.00665714922717753 0.004370729275349234
0.004329174027707329 0.01207791329835319 0.017007959274207243
-0.005082449141698198 -0.033420828778323024 0.027939951784911675
-0.007356696378816041 0.015173337531713044 0.005218990991266923
0.0010227848971290168 0.02443855576393539 -0.00018408541725107853
-0.028368286709768202 0.007407145618168693 -0.004732356240088246
0.0041723474827046955 -0.019704609209107878 -0.026239605420705116
0.002183603489369131 0.013416026232021603 -0.00871966828118602
0.023276697178096266 -0.019154897678352364 -0.017186384945113986
0.00991269991029039 -0.019495289978997795 0.000833316110422786
0.005630065058271331 -0.005131401547509747 -0.026491259213338506
0.00403173718266665 -0.0008030519325785812 -0.01864956561830083
-0.012505148538881704 0.015830718823672447 -0.015421027496457136
0.02743786594532614 -0.030002915835640756 -0.009351872906908448
0.021184577167422187 -0.022759174977445912 -0.008461430785738598
-0.004824201111970754 -0.02087866656614192 0.027039883654724567
0.0252325988713295 -0.019820543509948673 -0.030167785449128383
0.005993739027233905 -0.019661132213097173 0.023579958315374433
0.00576946528397512 0.014215579273901807 0.030350069466512
0.00891547397602588 0.008402270993215583 0.013989849683795463
0.007179934281637453 -0.0065507791263693 -0.015582116716118258
0.002098808601708667 -0.01873456269100285 -0.006478841824722562
0.003598807397490431 0.023843081679719498 -0.00694277780866719
0.05829873320354529 -0.026879456632578225 0.02756349123019539
0.00467106235148943 0.010417224900609949 0.015318818788877496
-0.013046244441731315 0.024413469867674596 -0.01489257889615305
-0.007403764194929131 0.025718210480803885 -0.03564253982528466
-0.008286589952142475 0.013183526776047711 -0.01264245283358709
-0.010794268317765 0.02739501349511195 -0.014162564369179582
0.007677853960272607 -0.005755885629767415 -0.023506207782854976
-0.016782445873288903 -0.008715303823928476 0.00015091459130269662
0.012029169515456942 -0.021275919079603176 0.006906982068156803
-0.009310004826248925 -0.030550931962771706 0.0005575399211313699
0.00022462430318554715 -0.009425864069422314 -0.0011545021569094828
-0.003062847186958823 -0.03237116013245517 -0.019251649099120065
0.001431859239850968 -0.010022633892785949 0.0027040695968343974
0.0034455530659727924 -0.004725608539525113 0.005117918527311816
-0.002525481866385948 -0.0021487046086781977 0.004814644789862977
-0.005723819623928291 -0.008138529361732778 -0.012128520787999116
0.0023871517464936357 0.002433437446893128 0.01342292204668399
0.0047183911780679854 -0.0025970445911280633 -0.01893787420392711
-0.006461573228137322 -0.008286594042160984 -0.005390176782418053
0.012554138684165987 0.01610895480599463 -0.02190381760383629
0.008259264844117788 0.005783709910098874 0.004203504168722717
0.017148375037685 0.029373708598065967 0.005165866488034213
0.029090473679439083 -0.0033591087071498274 -8.43288852129229e-05
-0.017604263477744807 -0.007261881364370043 -0.003887996280322526
0.000173161698444581 -0.018878263694950596 0.002024038966381868