# vtk DataFile Version 2.0
Really cool data
ASCII
DATASET UNSTRUCTURED_GRID
POINTS 584 double
-1.0 0.0 0.0
-0.9600374798207896 -0.027590413451835553 0.04
-0.9589620457797374 -0.028177574718636023 0.0
-0.9553815213922792 0.019675326217199102 0.04
0.6719637381218919 0.02110482676547816 0.0
0.6414775595248179 0.020020515529780993 0.04
0.6571281419012174 0.06 0.0
0.6240641012293764 0.022292119262118645 0.0
0.687851041884645 0.021313940245698455 0.04
0.7030120427199962 0.06 0.04
0.657128141901218 0.06 0.04
0.7030120427199952 0.06 0.0
0.6885310613992013 -0.0196061899732657 0.0
0.6720046167250797 -0.020579604775701428 0.04
0.6407079554435648 -0.019738458112036637 0.0
0.7171469290115033 0.021165332718839136 0.0
-0.7921016077200962 -0.06 0.04
-0.7604373514312079 -0.019298436119384588 0.0
-0.7479973317145423 -0.06 0.04
-0.7479973317145417 -0.06 0.0
0.7030120427199962 -0.06 0.0
0.7030120427199952 -0.06 0.04
0.6571281419012174 -0.06 0.04
0.7479973317145417 -0.06 0.04
0.7325903506195701 -0.020274227246539274 0.0
0.7176321617908783 -0.019839353713154383 0.04
0.7604373514312079 -0.019298436119384588 0.04
-0.8488906624897727 0.019856366527450334 0.04000000000000001
-0.8052789150181434 -0.019306901564895652 0.0
-0.805541091654972 0.020469431563422978 0.04000000000000001
-0.8203038938742353 -0.020636147377884773 0.04
0.897529295217204 0.022569895749215793 0.0
0.8488906624897727 0.019856366527450334 0.0
0.8569454102823642 0.029774901726562965 0.04
0.8777357995360431 0.06 0.0
0.9553815213922792 0.019675326217199102 0.0
0.95349853104827 0.02147987272312249 0.04
0.9103536180674616 -0.021283841161765512 0.0
-0.5450807564691462 -0.01715484187473429 0.04000000000000001
-0.5372746904547943 0.02439300391790418 0.04
-0.49049502097572617 0.000359712426279548 0.04000000000000001
-0.5409244119327052 -0.005150142234760652 0.0
-0.48901428549955095 -0.02776609156780287 0.019771763033692314
-0.4642419910175897 -0.06 0.04
-0.43891524330526177 8.673617379884035e-17 0.04000000000000001
0.7479973317145423 -0.06 0.0
0.9600486361512215 0.06 0.04
1.0 0.06 0.04
1.0 0.06 0.0
0.9192992165657531 0.06 0.0
0.7479973317145423 0.06 0.04
0.7309057796957548 0.02177174945441851 0.039999999999999994
0.7479973317145417 0.06 0.0
0.7613659684934695 0.020945326906433456 0.0
0.7736855084518748 0.020914979208800512 0.04
-0.8570647961856006 -0.015388027432140593 0.0
-0.8569454102823642 0.029774901726562965 0.0
-0.8649535140731797 -0.02016838668923704 0.039999999999999994
-0.1726925416005594 -1.214306433183765e-16 0.039999999999999994
-0.22806385632140147 1.0755285551056204e-16 0.039999999999999994
-0.2006519843784229 0.06 0.0
-0.22806385632140147 -1.1796119636642288e-16 0.0
0.438611990705585 -5.252150912499892e-05 0.04
0.41358849559293387 -0.06 0.04
0.4135884955929341 -0.06 0.0
0.4642419910175897 -0.06 0.0
0.4782715374234063 0.0302584611690398 0.019894876072988572
0.513903464641242 0.06 0.0
0.49049502097572617 0.000359712426279548 0.0
0.46424199101758934 0.06 0.0
0.46424199101758934 -0.06 0.04
-0.8164681441220105 0.022269284396602723 0.0
0.48912437490067595 -0.00041996788971368666 0.04
0.4642419910175897 0.06 0.04
-0.8353421249080566 0.06 0.04
0.8649535140731797 -0.02016838668923704 0.0
0.8973163514988121 0.02144006532192878 0.04
0.5625923446839085 0.06 0.04
0.6103276788742331 0.06 0.0
0.5943416245309461 0.018901239582525348 0.04
0.5790918012159274 0.021628695864523574 0.0
-0.593631917725493 -0.01946781888421301 0.04
-0.6103276788742336 -0.06 0.04
-0.6407079554435648 -0.019738458112036637 0.039999999999999994
-0.6264545933043166 -0.021459100211208025 0.0
-0.6103276788742331 -0.06 0.0
-0.6103276788742336 0.06 0.0
-0.6240641012293764 0.022292119262118645 0.04
-0.6414775595248179 0.020020515529780993 0.0
-0.5943416245309461 0.018901239582525348 0.0
-0.5790918012159274 0.021628695864523574 0.04000000000000001
-0.5625923446839077 0.06 0.04
-0.6103276788742331 0.06 0.04
-0.5625923446839085 0.06 0.0
-0.7325903506195701 -0.020274227246539274 0.039999999999999994
-0.7176321617908783 -0.019839353713154383 0.0
-0.7309057796957548 0.02177174945441851 0.0
-0.7736855084518748 0.020914979208800512 0.0
-0.7613659684934695 0.020945326906433456 0.04
-0.6571281419012174 0.06 0.04
-0.6719637381218919 0.02110482676547816 0.039999999999999994
-0.7030120427199952 0.06 0.04
-0.687851041884645 0.021313940245698455 0.0
-0.029521960903255984 -0.06 0.04
-0.05860957814939871 -6.938893903907228e-17 0.039999999999999994
-0.05860957814939863 5.898059818321144e-17 0.0
-0.08769719539554167 -0.06 0.0
-0.08769719539554144 -0.06 0.04
-0.2823507532564078 -5.204170427930421e-17 0.04
-0.25547572826437986 0.06 0.04
-0.25547572826438003 0.06 0.0
0.38751191920162714 6.938893903907228e-18 0.0
0.3352618020299945 -3.469446951953614e-18 0.0
0.36192316205531716 0.06 0.04
0.3619231620553172 0.06 0.0
-0.36192316205531716 0.06 0.0
-0.335244821032008 -1.1796296425746478e-06 0.0
-0.3352618020299945 -3.469446951953614e-18 0.039999999999999994
-0.38745316199969926 -7.894682722445895e-06 0.0
-0.3619231620553172 0.06 0.04
-0.3092257782484355 0.06 0.04
0.28235075325640757 5.551115123125783e-17 0.039999999999999994
0.30922577824843556 -0.06 0.0
0.335244821032008 -1.1796296425746478e-06 0.04
0.3092257782484355 -0.06 0.04
0.36192316205531716 -0.06 0.0
0.38745316199969926 -7.894682722445895e-06 0.04
0.3092257782484355 0.06 0.0
-0.38751191920162714 6.938893903907228e-18 0.04
-0.28235075325640757 5.551115123125783e-17 0.0
-0.30922577824843556 0.06 0.0
0.6103276788742336 -0.06 0.0
0.593631917725493 -0.01946781888421301 0.0
0.6264545933043166 -0.021459100211208025 0.04
0.4889627886584896 -0.027603176797077415 0.020155725176282127
0.583287522480325 -0.023728770665855194 0.039999999999999994
0.5450807564691462 -0.01715484187473429 0.0
0.5409244119327052 -0.005150142234760652 0.04
-0.48912437490067595 -0.00041996788971368666 0.0
0.3619231620553172 -0.06 0.04
-0.657128141901218 0.06 0.0
0.9600374798207896 -0.027590413451835553 0.0
1.0 0.0 0.04
0.9589620457797374 -0.028177574718636023 0.04
0.5625923446839077 -0.06 0.04
0.5625923446839085 -0.06 0.0
0.7766984080639845 -0.02052537972713625 0.0
-0.438611990705585 -5.252150912499892e-05 0.0
-0.583287522480325 -0.023728770665855194 0.0
-0.9600486361512215 0.06 0.0
-0.95349853104827 0.02147987272312249 0.0
-0.9192992165657539 0.06 0.0
-0.9192992165657531 0.06 0.04
-1.0 0.06 0.0
-0.14473309882269625 -0.06 0.04
-0.14473309882269605 -0.06 0.0
-0.11621514710911887 -1.214306433183765e-16 0.0
-0.17269254160055947 1.1796119636642288e-16 0.0
-0.14473309882269625 0.06 0.0
-0.11621514710911884 1.214306433183765e-16 0.039999999999999994
-0.8353421249080566 -0.06 0.0
-0.8353421249080575 -0.06 0.04
-0.8973163514988121 0.02144006532192878 0.0
-0.897529295217204 0.022569895749215793 0.04
0.11621514710911887 -1.214306433183765e-16 0.039999999999999994
0.05860957814939871 -6.938893903907228e-17 0.0
0.05860957814939863 5.898059818321144e-17 0.039999999999999994
0.08769719539554144 0.06 0.04
0.6103276788742336 0.06 0.04
0.5139034646412424 -0.06 0.0
0.9096368506350345 -0.020963842829632554 0.04
0.805541091654972 0.020469431563422978 0.0
0.8052789150181434 -0.019306901564895652 0.04
0.8203038938742353 -0.020636147377884773 0.0
0.08769719539554144 -0.06 0.0
0.08769719539554167 -0.06 0.04
0.9192992165657531 -0.06 0.04
0.8164681441220105 0.022269284396602723 0.039999999999999994
-0.9103536180674616 -0.021283841161765512 0.04000000000000001
-0.8777357995360431 -0.06 0.0
-0.9096368506350345 -0.020963842829632554 0.0
0.8570647961856006 -0.015388027432140593 0.04
0.7921016077200956 -0.06 0.04
0.8353421249080566 -0.06 0.04
0.7921016077200962 -0.06 0.0
0.4135884955929341 0.06 0.04
0.43891524330526177 8.673617379884035e-17 0.0
-0.7921016077200956 -0.06 0.0
-0.08769719539554144 0.06 0.0
0.14473309882269605 0.06 0.0
0.1726925416005594 -1.214306433183765e-16 0.0
0.11621514710911884 1.214306433183765e-16 0.0
-0.029521960903255984 0.06 0.0
0.0 0.0 0.0
0.17269254160055947 1.1796119636642288e-16 0.04
0.14473309882269625 0.06 0.04
0.0 0.0 0.04
0.2006519843784229 0.06 0.04
0.22806385632140147 -1.1796119636642288e-16 0.04
0.22806385632140147 1.0755285551056204e-16 0.0
-0.6720046167250797 -0.020579604775701428 0.0
-0.7030120427199962 -0.06 0.04
-0.7030120427199952 -0.06 0.0
0.25547572826438003 0.06 0.04
0.30922577824843556 0.06 0.04
0.25547572826437986 0.06 0.0
-0.02952196090325599 0.06 0.04
0.2006519843784232 -0.06 0.04
0.14473309882269605 -0.06 0.04
0.2006519843784229 -0.06 0.0
0.14473309882269625 -0.06 0.0
0.2823507532564078 -5.204170427930421e-17 0.0
-0.36192316205531716 -0.06 0.04
-0.41358849559293387 -0.06 0.0
0.5372746904547943 0.02439300391790418 0.0
0.5139034646412424 0.06 0.04
-0.5139034646412424 -0.06 0.04
0.41358849559293387 0.06 0.0
-0.7171469290115033 0.021165332718839136 0.04
-0.7479973317145417 0.06 0.04
-0.7030120427199962 0.06 0.0
0.08769719539554167 0.06 0.0
0.029521960903255984 -0.06 0.0
-0.02952196090325599 -0.06 0.0
0.02952196090325599 -0.06 0.04
0.02952196090325599 0.06 0.0
0.029521960903255984 0.06 0.04
-0.47805793986482265 0.03008719549728311 0.01940109733029794
-0.4642419910175897 0.06 0.0
0.6103276788742331 -0.06 0.04
1.0 -0.06 0.04
0.9600486361512205 -0.06 0.04
0.9600486361512215 -0.06 0.0
-0.3092257782484355 -0.06 0.0
0.877735799536044 -0.06 0.0
0.8777357995360431 -0.06 0.04
-0.41358849559293387 0.06 0.04
-0.4135884955929341 0.06 0.0
1.0 -0.06 0.0
1.0 0.0 0.0
-0.14473309882269605 0.06 0.04
-1.0 -0.06 0.0
-0.9600486361512215 -0.06 0.04
-1.0 -0.06 0.04
-0.7921016077200962 0.06 0.0
-0.9192992165657531 -0.06 0.0
-0.9600486361512205 -0.06 0.0
-0.7921016077200956 0.06 0.04
-0.7766984080639845 -0.02052537972713625 0.04
-0.5625923446839085 -0.06 0.04
-0.5625923446839077 -0.06 0.0
-0.877735799536044 -0.06 0.04
0.7921016077200962 0.06 0.04
-0.3619231620553172 -0.06 0.0
-0.7479973317145423 0.06 0.0
-0.8777357995360431 0.06 0.04
-0.4135884955929341 -0.06 0.04
-0.46424199101758934 -0.06 0.0
0.513903464641242 -0.06 0.04
-1.0 0.0 0.04
-0.877735799536044 0.06 0.0
-0.30922577824843556 -0.06 0.04
[...]
POINT_DATA 584
VECTORS displacement double
0.017855492120018118 -0.0003206101783045997 -0.008831105114208905
0.012511374691893902 -0.003970356934385675 -0.0043214375927531894
0.013186488714066101 -0.004924077354494355 -0.006909914419879114
0.01280408331575122 -0.0034601803804461414 -0.005625077929750589
-0.015183632693281351 -0.011274366081317141 -0.02080272665486828
-0.00833249790500156 0.0006396123627356176 -0.00925247378654872
-0.04202077885798398 -0.015812968929915655 -0.030442232895883173
-0.013587431881359349 -0.005753893522329231 -0.016756967782869264
-0.017331947898095786 -0.01032844670827068 -0.0067919141515638114
-0.02461390526618849 -0.054797704161515234 -0.018380168054928557
-0.04042942254421779 -0.006429233488535822 -0.01948540703794942
-0.03011447718690883 -0.056949933256105825 -0.03160425563307438
-0.006782705930573134 0.005634318246463175 -0.022998538600967976
-0.003834143978471284 -0.011099186603094825 -0.010831354513514826
-0.004646223036056062 0.0028154584468478958 -0.015626345392297174
-0.001974499659726139 -0.02760392063028877 -0.024953857153637054
-0.014230028020725849 -0.0060841380841400354 0.0018265701765435409
0.01563702528226443 -2.502951917069586e-05 0.0074389009465387354
-0.016675859980421717 0.002995910186847189 0.007209343975953565
-0.015317321149317529 0.0023339427538315834 0.00714732285300904
0.0015442741265366167 0.03980358394337992 -0.019124876087816243
-0.0025159307416507052 0.020971183890970673 -0.022935224887795525
-0.02339715462100923 0.0032649157751540266 -0.01426383299126202
-0.01995861684115323 0.0033304371484558473 -0.011695524558155874
0.013374128456424767 0.02350973368387108 -0.015828286893975307
0.0011256052912519238 0.052012381912398514 -0.0071208334898380694
0.01749826925806135 0.0028860417797031603 -0.0003688919922108491
0.012465085062023986 -0.0016788580357634064 0.0025090391522808557
0.01789399653055788 0.004090573327712429 0.0036056121405862044
0.012737377143693532 0.0024789437564078634 0.006260312188420632
0.017258545249449916 0.003229606065243538 0.0037130068031212314
0.01883678500386596 -0.0025136009731916388 0.029037722137521912
0.02303152827636259 0.04857076267366372 0.028337491240679646
0.018563125551877644 0.05443263895167872 0.03278555812100661
0.03547938595191326 0.022632925504224136 0.0349790501475404
0.019082358796302965 0.024635917469579237 0.012252731990489135
0.01949932883873617 0.030732358877306198 0.0014540654146309676
0.0045895354930460645 -0.004413228636479201 0.016533999306103466
0.004885599556076072 0.007023691926905441 -0.006249444663180501
0.0008660804247405905 0.005112771927418796 -0.003060413897915486
0.016020649419795533 -0.004173463722115821 -0.0010812180502449598
0.015482294162326746 0.005795383121360862 -0.004162202632982262
-0.009613426693957433 -0.004596206278969619 0.0005515755459722196
-0.04250665604833125 0.00157057589808983 0.005108376600202597
0.017691931395521332 0.004728066548980462 0.005052372379030496
-0.0028167455974506942 0.011233209072501527 -0.013341051064983523
0.031570844584080326 0.022996123544484482 -0.0025878414759678897
0.03736414564576896 -0.021931342494305645 -0.013598832030205158
0.030268346193316552 -0.03173133539555828 -0.0072934856934877765
0.01897220905166218 0.013597050281058533 0.025135361089837042
-0.044220248731214655 0.008442452580465708 -0.017282580218039138
0.008132478281458957 -0.03710597598513541 -0.004595767599098013
-0.03597556699291384 -0.009611630238985033 -0.01986766862003707
0.006359263979247352 0.003267275665743584 -0.008499246131708132
-0.003729329743769689 0.020644729310456484 0.004255512327468328
0.0157677694304706 0.003521429943437349 -0.0022553669838639144
0.011825536935942018 -0.0009589944210044337 -0.0007907148303074764
0.01433421823316852 0.0003229229962131519 -0.0009370988423459614
0.03488908292610146 -0.0019472711049185536 -0.0011303199965287717
0.03006113113048655 0.0007726459612821136 -0.006816399826458677
-0.039994988355250054 -0.0029359898146345317 -0.004800846229144304
0.030317083189586484 0.0009565424002576696 -0.006094439468190607
0.023399198268763327 3.4024909005417945e-06 -0.006797907622229085
-0.02356668626287147 -0.0007825557838099278 -0.007074726219230448
-0.026229579817964102 -0.0015716134741888541 -0.007550311276254383
-0.02710368131260582 0.0021693334773801413 -0.00631484831330281
-0.011669465391771595 -0.003420616566564139 -0.007532215205854286
-0.04294439842034188 -0.0030277499436696244 -0.004947415956292418
0.013350939898410328 -0.002162511902759771 -0.007914163202037357
-0.04197027947884894 -0.0041732302532866295 -0.009612487622065697
-0.024023467362646822 0.0034960175479426033 -0.004540296493324123
0.013591527490432586 0.002886683866075375 0.004858444392058504
0.017485240338455058 -0.0006189341979062868 -0.0006849654733613714
-0.0379592013590548 -0.004574686811741328 -0.0068489467834054185
-0.010557301115339906 -0.0015071995325093045 0.004751059507655519
-0.003125280005383255 0.04079304658685245 0.021789940033643308
0.017302263492355176 -0.01912781617433292 0.02246968830600568
-0.04034604884415541 -0.012913388118835276 0.003380323597367066
-0.04375739850441994 -0.013632599727879537 -0.014209654766948904
-0.0071651561301310255 -0.005476200823038446 0.0005722203636257676
-0.008650923066389957 -0.006299119414696715 -0.008117637836472636
0.006282346419664869 -0.0035079440597612717 -0.0060252724927556105
-0.032808546097667625 -0.00908363907571192 -0.002638841141240431
0.008759449242228094 0.0065435216950379725 -0.0011208359258233895
0.008868225652693375 0.0016844993177520659 0.0010366487625767607
-0.031285192076269834 -0.0053980961211987895 -0.0031884150943550056
-0.01936337965281617 0.011693615345797685 3.997967153251998e-05
0.009035098196271588 0.0073774639780756265 -0.0015443257906410676
0.009199815845366579 0.004130368967801456 0.001244023654758866
0.005896359250928893 0.003768257329947545 -0.0015310360078397201
0.005271773537542864 0.0012062302066719332 -0.005109851045236273
-0.0246434895638397 0.007978127279306885 -0.0003241212269200159
-0.016656885855474438 0.007695402891180419 -0.00027261649165829
-0.027289717927017336 0.011758661706641851 -0.0007643249393611421
0.014972107068228505 0.0026663541305491246 0.008257341263890976
0.015260041353301683 -0.00302842394066638 0.009490287829415477
0.015080075067207837 -0.002743341825966498 0.0069229791465934745
0.010665901249428934 -0.0012046144250899232 0.007510742839921641
0.009106959397621277 -0.0020752965212248353 0.008078095263090097
-0.016604851245111126 -0.003370670989879965 0.0024825929263678627
0.0068713527336242315 -0.0004946159209694035 0.0035517602639129004
-0.012929057418503016 0.009529991548407595 0.0045542873998737615
0.010166713784312867 -0.0008722759175282015 0.006871774368690764
-0.022882125672567623 0.007746532382094922 -0.00071334461013182
0.04400950261057221 -0.0020326677378193743 0.004937866781216056
0.04217169106858035 -0.0009311836571197923 0.0020257161455841436
-0.02984359057689306 0.007783516760645584 0.0032822274556361937
-0.029348994515290366 0.007236697016571294 0.005396420820196154
0.02640092774654366 0.000764494871666414 -0.004939195756458924
-0.0421587177661347 -0.0017280008436230908 -0.0058261958890404395
-0.042539799350347796 -0.0007849018629847148 -0.00572989593342287
0.02264652588324532 -0.0016519878655722614 -0.008297719098787008
0.028219168182153045 0.00016628891219139195 0.0017816403989508358
-0.03600679088174074 0.004953959515757096 -0.004921672922052369
-0.041959916503293775 0.005439188968739381 -0.003315242608926755
-0.04100819031719835 0.002595805016382348 0.006965607341298607
0.02333733296074291 0.002804067570599547 0.003279841469116203
0.02127196237461699 0.001857821237273786 0.0012430280805449472
0.021448492276323224 -0.0031447843365467808 0.007727956603645987
-0.040957206175101527 0.0023920259714698398 0.006045014490563368
-0.04149491905518531 0.0006162698912591999 0.0006150088350091422
0.03956431035731142 -0.0005450541369142119 0.0093518567602293
-0.02294740836538758 -0.00846732752173515 0.008343707572031909
0.03435859450557479 -0.0002177932795798167 0.00041262009269014
-0.020312668429032208 -0.007371424255942535 0.005790760319727946
-0.025788457002259138 -0.004338182665897736 -0.0028021563743157564
0.02902802251212936 -0.00020995291776061925 -0.0063120597048329525
-0.038712428328051086 0.00873788014114769 0.009085897880363576
0.019922294302051897 -0.0035513201079174213 0.006871762212626648
0.026246004917222756 0.001617672522306768 -0.003859198693173157
-0.04339185113243002 0.0018867218358714626 0.0004184837849430527
-0.022342880977897533 0.011489082569635047 -0.010750236836915795
-0.004687357201875618 -0.0009931011450494518 -0.008666619328349634
-0.0010242353832444519 0.011347604756901566 -0.005373908773077295
-0.0013281423217301061 0.001285656743852288 -0.00421335346234571
-0.0005671696575436109 -0.0030367771561880036 0.0011733516811639308
0.001339686879744284 0.0015065112233196133 -0.0031760026237612365
0.010146015702661864 0.0035928900134968526 0.003224076684173417
0.017205734000941213 -0.0034092850508426822 0.0005065267487073469
-0.022997296298870637 -0.003686651270898693 -0.004530240514182511
-0.018142898894825447 -0.0014292264982037515 0.002673903077869727
-0.008356142448108131 -0.0037691844412394986 0.011736578609741536
0.0018825739211631018 -0.05248628783606057 -0.005289012161114081
-0.010232675354527866 0.0010494636138497035 -0.0025971629345008527
-0.026216989705534145 0.004302858435797761 0.003084979600388653
-0.027676450362540485 0.0048627807354029995 -0.003635539666116062
0.01337204490002305 -0.01028399389607486 0.007588499644143905
0.02031459424547111 0.002052140007214859 0.005605449853415843
0.006250016838759036 0.0005510830947650349 -0.00409738605212223
-0.005401347494646817 -0.011074450213317192 -0.012431684301414248
0.011196116039955269 -0.006737532476056322 -0.009932079172592529
-0.006811361771789841 -0.005159836563144561 -0.009766095603535141
-0.005226350091625535 -0.006354618472091103 -0.0044517014615123056
-0.005424142824605283 -0.0035626207739068443 -0.010767394940768798
-0.0339154383479897 0.002567008728142973 0.0026485405214953985
-0.03373280887792075 0.0022422350806176857 0.0022448995535794456
0.03858315864132363 -0.0005313967811575903 0.004454191233169221
0.034802234205694706 -0.0021554938981910065 -0.0011189446167039216
-0.0392643930970322 -0.004054150802520399 0.0016393196860247246
0.03878947252657767 -0.001001995186433048 0.005501636416507397
-0.011727293769921165 0.012609160723533687 -0.00397169767863163
-0.010470706959483125 0.010729066922224832 -0.0017081880060203123
0.01335144556942182 0.0026805973585909562 -0.004739805307806434
0.013234125349988596 0.004433725916211282 -0.0031722943571700322
0.046724708006995797 -0.00015340593424378857 -0.006550993780667649
0.0487127939995481 0.00026052849836241616 -0.012435270679450773
0.048674759131808444 -8.354682227428038e-05 -0.00946681254696741
-0.03382085634658423 -0.001128004843189361 -0.008754604991438236
-0.04000492423400968 -0.012054695767616842 -0.0057745685327946555
-0.026007016102849757 0.0041376738711010755 -0.003172275956690345
0.003542202813729229 -0.017496345904158935 0.006339538336211758
0.012216113543126678 0.004709397131832995 0.012234326148966836
-0.010954235885378158 0.0059949648826016985 0.0034104252034698867
-0.0066589498808185535 0.022695329422210746 0.017557572136346827
-0.016133131510844455 -0.0008354385433764248 -0.008887052761413296
-0.018225535226478146 0.0007501451834131119 -0.008405487778518904
-0.011651679779421529 -0.019894188908278643 -0.0013209141479639174
0.007689108283527044 0.00022034341866488478 0.021509622020277057
0.014422599279391542 0.004768680279994935 -0.003417071712281705
-0.011736764235463689 0.003620306384415617 -0.0060231731255221575
0.014782640573817975 0.004955373473465295 -0.005903446456146597
-0.004516823278221077 0.029533506624573786 0.012321801420755627
-0.018144622687686286 -0.06290888333359024 0.014750090437880775
-0.02198196943140146 0.01772942274094274 -0.0038511311363527943
-0.008015548899642105 -0.02852367958468808 0.0001658199142190863
-0.03840069061153374 -0.0019489179267453416 -0.009289676909911686
0.018828934941612537 -0.0019098012772381582 -0.010380189196935636
-0.013530931036812768 -0.0006995365017233693 0.00015062522645065417
-0.03740601517511393 -0.006101072433381408 0.00484734101944466
-0.031777754752631455 0.0033779038838050723 -2.167583671005171e-05
0.047190024106474854 -0.0005452431378363111 0.006767565569581751
0.04983033552452566 -0.0007093942967086894 -0.005423032212279746
-0.036243037158769566 -0.006395513538326686 -0.0013201444442257737
0.046706685954032164 0.0005018600422092378 -0.006431610117734729
0.04491904535759188 0.00037266271441064474 0.004622496779453455
-0.03331322669148057 0.0031823394494271207 -0.0013914857936814737
0.04753701460970822 -0.0004251560349049571 -0.0034267761654401636
-0.0331751743071703 0.006885236548765405 0.008387892454527214
0.043081692042535064 -0.0004207173028339677 0.010399318273354042
0.04195802225388561 -0.0008005028653063806 0.016416716146032902
0.011838589006080443 -0.008244071148784473 0.005164657219005731
-0.021500457186565687 -0.009729281499481603 0.007261321545847358
-0.01901503732585 -0.009645636284428162 0.008218995938191809
-0.034453540541971146 0.008742958346167682 0.011574399527117082
-0.03535358851986018 0.008351767057213568 0.004910729813727435
-0.03541203681079413 0.00866921345038505 0.017217061722185203
-0.03571349679746672 -0.005398980550915055 0.0005311468608720979
-0.017458767861465448 -0.007400062822092738 0.00996604057711529
-0.017167891450277962 -0.0038650292658302904 -0.00022203448376434854
-0.01803692630316069 -0.007861436234617422 0.014663696875030819
-0.015970263045121526 -0.0050577369155288526 0.0019554459332820654
0.03578611551850191 -0.0002591188516759408 0.01281546939563425
-0.0449620519653897 -0.0005822093191345007 0.004228636636398365
-0.045435250063584315 -0.0026806433607143372 0.0076297041751904205
-0.008908252953676853 -0.001053835089243567 -0.005633084440821749
-0.041270906187257504 -0.00508112459589593 0.001096188044491951
-0.04516887628222265 -0.007436224972538114 -0.0034844815512110727
-0.04218424735504574 -0.0026801868235063276 -0.01093953659947838
0.014511804210989446 0.00648694641665858 0.007246500150917845
-0.015210893726241827 -0.017467730023194853 0.0046566055776522345
-0.012085673866439304 0.005917540750754246 0.004841985986499521
-0.03158087249896424 0.0001464009720472374 -0.009700373470163497
-0.01896013807074108 0.0043417800494503075 -0.009514833558507272
-0.02367640621897507 0.00772852052695919 -0.0023801817179507005
-0.019103461518818195 0.005211467217898317 -0.00860836485127512
-0.0330610321889488 -0.0016793257470546375 -0.008155568188884363
-0.03384849701947637 -0.003018197903693802 -0.0075399145074575
-0.007953412767871154 -0.0017081489457892443 -0.0008651455360622505
-0.03471065242963786 -0.0009560149950682495 0.0004813019680532283
-0.020174080063467364 0.012128601551565674 -0.0032778172925969156
-0.006654263473962988 -0.04469001274779249 0.008367880776503163
-0.008887948571237194 -0.008921758500973268 -0.00024152024584341667
-0.009419612708537873 -0.007957648235523996 0.010540902816177694
-0.04440405097908086 0.0031408341602315567 -0.0023264327898584103
-0.01751348324617753 0.03040044187060377 -0.0014397512668250523
-0.020015759513964542 0.00441657001849826 -0.005842593625618406
-0.03624985667398558 -0.00169026212162839 0.006841881699933463
-0.03659275636183324 -0.0014254253820399868 0.006235178450009507
-0.007082720548915462 -0.056910597429159174 0.013879028952567067
0.00029942065465258025 -0.056302075008883075 0.006708314622770456
-0.040308593430211315 -0.002303549984317802 0.0011726586454976484
-0.002090907780667157 0.004475398479659008 -0.006662434261369257
-0.002073916944751353 -0.0015021920949784726 -0.001667970447656403
0.0015600325159721158 0.005096899722404052 -0.0013632468631186159
-0.01229291533592438 0.006638463759053248 0.006674417616793094
-0.006952298838711646 0.00361210645508723 -0.006426531381948522
-0.0045339298703287395 -0.004719942769167594 -0.006479583680670489
-0.015681426351907005 0.007483939696340598 0.0062861792046986975
0.014555453124745873 -0.0047535817703737195 0.006911078248965575
-0.03734130900519715 -0.005235429765777326 -0.00897643764897519
-0.03293593776434418 -0.004154873857624726 -0.0034676908319457894
-0.010466497265730861 0.00032345005960699266 -0.005706903385010138
-0.028123697857543185 -0.024650106373037346 0.010981955982219817
-0.04447121954521097 0.0006229878685948219 0.004354893412439392
-0.013580331688296218 -0.01396153807095948 0.005855689402943481
-0.006237106637827288 -0.0013134507526749153 -0.0017317621773438338
-0.04527101316494136 -0.0023447093837203814 0.008482601290167613
-0.040369921079109014 -0.000985633800140245 0.005382486099953504
-0.02419761761877755 0.005772037995346652 0.0014280903593851808
0.01946125711520664 0.002263725714855082 -0.006586572651236796
-0.003996339701507565 -0.0015109925966095101 -0.004809803544624313
-0.043845235033037146 0.0013176264654307685 -0.0035722613664669776
-0.04257872706360825 -5.7374511965942395e-05 -0.008569874825003494
-0.0380238565193459 -0.004296358469457327 0.005054891603736088
-0.01937793301329414 -0.00897208793233844 0.016765201343514655
-0.04164761953019564 0.0017837992996614816 -0.008094027309624332
-0.004258387166600325 -0.012017779856376778 -0.007223249547543419
-0.005140986372880833 0.005039135378650206 -0.0022757686820785287
-0.029995926248989082 0.0002816540095774988 -0.003296849808099352
0.012286373257409859 -0.012430460353700564 0.0051120975737735195
0.027060511217928487 0.021633370854790276 0.006421894546626081
-0.005361578309174543 0.0014660296860337296 -0.006487619721829121
-0.025087517334364536 -0.006301127236680415 0.0002113072004993451
-0.03359855292115186 0.003933959415092065 -0.0003939294271910079
-0.020883551788675396 -0.008997666601607798 0.006288861172883023
0.03999782050914329 -0.0025351564203894643 0.03912835021437078
0.025291208703260126 0.006144509508474526 0.023856756763872305
-0.018788072453529068 -0.008159086906356274 0.012038371365707477
-0.012970160750865512 0.03941928073009352 -0.0028006029728739105
-0.040329042303298056 -0.006154087187481473 -0.00017362397664055082
-0.04073176957402717 -0.0022358528434514875 -0.005003093442528647
-0.008036806696234957 2.1159241507814806e-05 0.002752906113253752
-0.009682102240854432 -0.002448881318666353 0.019000974336356963
-0.018747010226693672 -0.028763259208569432 0.037284423756778526
-0.023344377923216555 -0.014758459292998264 0.00646564230619308
-0.011518289305837807 -0.010699050594765587 0.0038010183750771032
-0.043102155572384546 -0.010055827346555586 -0.0038635026797567123
-0.02128320200757493 -0.0075433123428598975 0.0038387092640479134
-0.01768835989671187 0.007781669874518072 -0.02013134955643835
-0.03914478065313665 0.0029773427025008114 -0.004720744491361914
-0.03868249259576499 0.003116964750594052 -0.004213099680704549
-0.03342528175101424 0.006196678135006293 0.012145261955183121
-0.00645049813162897 0.009091622768906108 0.0005594395047333615
0.011158747356232861 0.003495732923059934 0.002288279824150341
-0.003401455019015257 0.002928463502994157 0.004391490680047712
0.016836613852118664 0.0013638262980093263 0.0016072157819571676
0.04814154418543524 0.00014379532821645665 -0.006377424915264233
0.014163362788898183 0.0027470755727425555 0.004468347455866103
0.01400510157106975 -0.0036266166687628208 0.0030018780363257535
-0.03873231138260329 -0.0016714587788762532 -0.0085229969566675
-0.03600737161661817 0.0024216075592534397 -0.004000746280641044
0.028909568671392227 0.0006356767939267872 -0.006828498710496332
0.0019798206637200197 -0.005161052144536307 -0.008102098998492025
0.006847295296641565 -0.010910392253890937 -0.010448646835190553
0.006619364342163791 0.002797610937483733 -0.00750691525554493
0.012894184849441126 -0.00027586457867009894 5.8229171655692936e-05
0.015246955471995907 -0.007118307959359609 0.0012858317867790368