# vtk DataFile Version 2.0
Really cool data
ASCII
DATASET UNSTRUCTURED_GRID
POINTS 584 double
-1.0 0.0 0.0
-0.9600374798207896 -0.027590413451835553 0.04
-0.9589620457797374 -0.028177574718636023 0.0
-0.9553815213922792 0.019675326217199102 0.04
0.6719637381218919 0.02110482676547816 0.0
0.6414775595248179 0.020020515529780993 0.04
0.6571281419012174 0.06 0.0
0.6240641012293764 0.022292119262118645 0.0
0.687851041884645 0.021313940245698455 0.04
0.7030120427199962 0.06 0.04
0.657128141901218 0.06 0.04
0.7030120427199952 0.06 0.0
0.6885310613992013 -0.0196061899732657 0.0
0.6720046167250797 -0.020579604775701428 0.04
0.6407079554435648 -0.019738458112036637 0.0
0.7171469290115033 0.021165332718839136 0.0
-0.7921016077200962 -0.06 0.04
-0.7604373514312079 -0.019298436119384588 0.0
-0.7479973317145423 -0.06 0.04
-0.7479973317145417 -0.06 0.0
0.7030120427199962 -0.06 0.0
0.7030120427199952 -0.06 0.04
0.6571281419012174 -0.06 0.04
0.7479973317145417 -0.06 0.04
0.7325903506195701 -0.020274227246539274 0.0
0.7176321617908783 -0.019839353713154383 0.04
0.7604373514312079 -0.019298436119384588 0.04
-0.8488906624897727 0.019856366527450334 0.04000000000000001
-0.8052789150181434 -0.019306901564895652 0.0
-0.805541091654972 0.020469431563422978 0.04000000000000001
-0.8203038938742353 -0.020636147377884773 0.04
0.897529295217204 0.022569895749215793 0.0
0.8488906624897727 0.019856366527450334 0.0
0.8569454102823642 0.029774901726562965 0.04
0.8777357995360431 0.06 0.0
0.9553815213922792 0.019675326217199102 0.0
0.95349853104827 0.02147987272312249 0.04
0.9103536180674616 -0.021283841161765512 0.0
-0.5450807564691462 -0.01715484187473429 0.04000000000000001
-0.5372746904547943 0.02439300391790418 0.04
-0.49049502097572617 0.000359712426279548 0.04000000000000001
-0.5409244119327052 -0.005150142234760652 0.0
-0.48901428549955095 -0.02776609156780287 0.019771763033692314
-0.4642419910175897 -0.06 0.04
-0.43891524330526177 8.673617379884035e-17 0.04000000000000001
0.7479973317145423 -0.06 0.0
0.9600486361512215 0.06 0.04
1.0 0.06 0.04
1.0 0.06 0.0
0.9192992165657531 0.06 0.0
0.7479973317145423 0.06 0.04
0.7309057796957548 0.02177174945441851 0.039999999999999994
0.7479973317145417 0.06 0.0
0.7613659684934695 0.020945326906433456 0.0
0.7736855084518748 0.020914979208800512 0.04
-0.8570647961856006 -0.015388027432140593 0.0
-0.8569454102823642 0.029774901726562965 0.0
-0.8649535140731797 -0.02016838668923704 0.039999999999999994
-0.1726925416005594 -1.214306433183765e-16 0.039999999999999994
-0.22806385632140147 1.0755285551056204e-16 0.039999999999999994
-0.2006519843784229 0.06 0.0
-0.22806385632140147 -1.1796119636642288e-16 0.0
0.438611990705585 -5.252150912499892e-05 0.04
0.41358849559293387 -0.06 0.04
0.4135884955929341 -0.06 0.0
0.4642419910175897 -0.06 0.0
0.4782715374234063 0.0302584611690398 0.019894876072988572
0.513903464641242 0.06 0.0
0.49049502097572617 0.000359712426279548 0.0
0.46424199101758934 0.06 0.0
0.46424199101758934 -0.06 0.04
-0.8164681441220105 0.022269284396602723 0.0
0.48912437490067595 -0.00041996788971368666 0.04
0.4642419910175897 0.06 0.04
-0.8353421249080566 0.06 0.04
0.8649535140731797 -0.02016838668923704 0.0
0.8973163514988121 0.02144006532192878 0.04
0.5625923446839085 0.06 0.04
0.6103276788742331 0.06 0.0
0.5943416245309461 0.018901239582525348 0.04
0.5790918012159274 0.021628695864523574 0.0
-0.593631917725493 -0.01946781888421301 0.04
-0.6103276788742336 -0.06 0.04
-0.6407079554435648 -0.019738458112036637 0.039999999999999994
-0.6264545933043166 -0.021459100211208025 0.0
-0.6103276788742331 -0.06 0.0
-0.6103276788742336 0.06 0.0
-0.6240641012293764 0.022292119262118645 0.04
-0.6414775595248179 0.020020515529780993 0.0
-0.5943416245309461 0.018901239582525348 0.0
-0.5790918012159274 0.021628695864523574 0.04000000000000001
-0.5625923446839077 0.06 0.04
-0.6103276788742331 0.06 0.04
-0.5625923446839085 0.06 0.0
-0.7325903506195701 -0.020274227246539274 0.039999999999999994
-0.7176321617908783 -0.019839353713154383 0.0
-0.7309057796957548 0.02177174945441851 0.0
-0.7736855084518748 0.020914979208800512 0.0
-0.7613659684934695 0.020945326906433456 0.04
-0.6571281419012174 0.06 0.04
-0.6719637381218919 0.02110482676547816 0.039999999999999994
-0.7030120427199952 0.06 0.04
-0.687851041884645 0.021313940245698455 0.0
-0.029521960903255984 -0.06 0.04
-0.05860957814939871 -6.938893903907228e-17 0.039999999999999994
-0.05860957814939863 5.898059818321144e-17 0.0
-0.08769719539554167 -0.06 0.0
-0.08769719539554144 -0.06 0.04
-0.2823507532564078 -5.204170427930421e-17 0.04
-0.25547572826437986 0.06 0.04
-0.25547572826438003 0.06 0.0
0.38751191920162714 6.938893903907228e-18 0.0
0.3352618020299945 -3.469446951953614e-18 0.0
0.36192316205531716 0.06 0.04
0.3619231620553172 0.06 0.0
-0.36192316205531716 0.06 0.0
-0.335244821032008 -1.1796296425746478e-06 0.0
-0.3352618020299945 -3.469446951953614e-18 0.039999999999999994
-0.38745316199969926 -7.894682722445895e-06 0.0
-0.3619231620553172 0.06 0.04
-0.3092257782484355 0.06 0.04
0.28235075325640757 5.551115123125783e-17 0.039999999999999994
0.30922577824843556 -0.06 0.0
0.335244821032008 -1.1796296425746478e-06 0.04
0.3092257782484355 -0.06 0.04
0.36192316205531716 -0.06 0.0
0.38745316199969926 -7.894682722445895e-06 0.04
0.3092257782484355 0.06 0.0
-0.38751191920162714 6.938893903907228e-18 0.04
-0.28235075325640757 5.551115123125783e-17 0.0
-0.30922577824843556 0.06 0.0
0.6103276788742336 -0.06 0.0
0.593631917725493 -0.01946781888421301 0.0
0.6264545933043166 -0.021459100211208025 0.04
0.4889627886584896 -0.027603176797077415 0.020155725176282127
0.583287522480325 -0.023728770665855194 0.039999999999999994
0.5450807564691462 -0.01715484187473429 0.0
0.5409244119327052 -0.005150142234760652 0.04
-0.48912437490067595 -0.00041996788971368666 0.0
0.3619231620553172 -0.06 0.04
-0.657128141901218 0.06 0.0
0.9600374798207896 -0.027590413451835553 0.0
1.0 0.0 0.04
0.9589620457797374 -0.028177574718636023 0.04
0.5625923446839077 -0.06 0.04
0.5625923446839085 -0.06 0.0
0.7766984080639845 -0.02052537972713625 0.0
-0.438611990705585 -5.252150912499892e-05 0.0
-0.583287522480325 -0.023728770665855194 0.0
-0.9600486361512215 0.06 0.0
-0.95349853104827 0.02147987272312249 0.0
-0.9192992165657539 0.06 0.0
-0.9192992165657531 0.06 0.04
-1.0 0.06 0.0
-0.14473309882269625 -0.06 0.04
-0.14473309882269605 -0.06 0.0
-0.11621514710911887 -1.214306433183765e-16 0.0
-0.17269254160055947 1.1796119636642288e-16 0.0
-0.14473309882269625 0.06 0.0
-0.11621514710911884 1.214306433183765e-16 0.039999999999999994
-0.8353421249080566 -0.06 0.0
-0.8353421249080575 -0.06 0.04
-0.8973163514988121 0.02144006532192878 0.0
-0.897529295217204 0.022569895749215793 0.04
0.11621514710911887 -1.214306433183765e-16 0.039999999999999994
0.05860957814939871 -6.938893903907228e-17 0.0
0.05860957814939863 5.898059818321144e-17 0.039999999999999994
0.08769719539554144 0.06 0.04
0.6103276788742336 0.06 0.04
0.5139034646412424 -0.06 0.0
0.9096368506350345 -0.020963842829632554 0.04
0.805541091654972 0.020469431563422978 0.0
0.8052789150181434 -0.019306901564895652 0.04
0.8203038938742353 -0.020636147377884773 0.0
0.08769719539554144 -0.06 0.0
0.08769719539554167 -0.06 0.04
0.9192992165657531 -0.06 0.04
0.8164681441220105 0.022269284396602723 0.039999999999999994
-0.9103536180674616 -0.021283841161765512 0.04000000000000001
-0.8777357995360431 -0.06 0.0
-0.9096368506350345 -0.020963842829632554 0.0
0.8570647961856006 -0.015388027432140593 0.04
0.7921016077200956 -0.06 0.04
0.8353421249080566 -0.06 0.04
0.7921016077200962 -0.06 0.0
0.4135884955929341 0.06 0.04
0.43891524330526177 8.673617379884035e-17 0.0
-0.7921016077200956 -0.06 0.0
-0.08769719539554144 0.06 0.0
0.14473309882269605 0.06 0.0
0.1726925416005594 -1.214306433183765e-16 0.0
0.11621514710911884 1.214306433183765e-16 0.0
-0.029521960903255984 0.06 0.0
0.0 0.0 0.0
0.17269254160055947 1.1796119636642288e-16 0.04
0.14473309882269625 0.06 0.04
0.0 0.0 0.04
0.2006519843784229 0.06 0.04
0.22806385632140147 -1.1796119636642288e-16 0.04
0.22806385632140147 1.0755285551056204e-16 0.0
-0.6720046167250797 -0.020579604775701428 0.0
-0.7030120427199962 -0.06 0.04
-0.7030120427199952 -0.06 0.0
0.25547572826438003 0.06 0.04
0.30922577824843556 0.06 0.04
0.25547572826437986 0.06 0.0
-0.02952196090325599 0.06 0.04
0.2006519843784232 -0.06 0.04
0.14473309882269605 -0.06 0.04
0.2006519843784229 -0.06 0.0
0.14473309882269625 -0.06 0.0
0.2823507532564078 -5.204170427930421e-17 0.0
-0.36192316205531716 -0.06 0.04
-0.41358849559293387 -0.06 0.0
0.5372746904547943 0.02439300391790418 0.0
0.5139034646412424 0.06 0.04
-0.5139034646412424 -0.06 0.04
0.41358849559293387 0.06 0.0
-0.7171469290115033 0.021165332718839136 0.04
-0.7479973317145417 0.06 0.04
-0.7030120427199962 0.06 0.0
0.08769719539554167 0.06 0.0
0.029521960903255984 -0.06 0.0
-0.02952196090325599 -0.06 0.0
0.02952196090325599 -0.06 0.04
0.02952196090325599 0.06 0.0
0.029521960903255984 0.06 0.04
-0.47805793986482265 0.03008719549728311 0.01940109733029794
-0.4642419910175897 0.06 0.0
0.6103276788742331 -0.06 0.04
1.0 -0.06 0.04
0.9600486361512205 -0.06 0.04
0.9600486361512215 -0.06 0.0
-0.3092257782484355 -0.06 0.0
0.877735799536044 -0.06 0.0
0.8777357995360431 -0.06 0.04
-0.41358849559293387 0.06 0.04
-0.4135884955929341 0.06 0.0
1.0 -0.06 0.0
1.0 0.0 0.0
-0.14473309882269605 0.06 0.04
-1.0 -0.06 0.0
-0.9600486361512215 -0.06 0.04
-1.0 -0.06 0.04
-0.7921016077200962 0.06 0.0
-0.9192992165657531 -0.06 0.0
-0.9600486361512205 -0.06 0.0
-0.7921016077200956 0.06 0.04
-0.7766984080639845 -0.02052537972713625 0.04
-0.5625923446839085 -0.06 0.04
-0.5625923446839077 -0.06 0.0
-0.877735799536044 -0.06 0.04
0.7921016077200962 0.06 0.04
-0.3619231620553172 -0.06 0.0
-0.7479973317145423 0.06 0.0
-0.8777357995360431 0.06 0.04
-0.4135884955929341 -0.06 0.04
-0.46424199101758934 -0.06 0.0
0.513903464641242 -0.06 0.04
-1.0 0.0 0.04
-0.877735799536044 0.06 0.0
-0.30922577824843556 -0.06 0.04
[...]
POINT_DATA 584
VECTORS displacement double
0.06854158523851091 -0.03611123165085729 -0.07017446663418665
0.0245564956132079 -0.025259421567684737 -0.029154088272582483
0.04981770446144519 -0.03366045325940266 -0.02053151446577534
0.02514166807742809 0.013347305324504843 -0.026645730965559295
-0.01539458113989353 -0.003119882221631691 0.0008308450260500551
-0.00413807206353759 -0.0026361737308408847 -0.00010848587687727576
-0.013916153542810257 0.005316790895623696 0.002458762600071323
-0.010305824167189106 -0.002838289307813959 0.008485035699311793
-0.007574589542519039 0.00182283577919501 -0.005793077560517944
-0.010011227697367875 0.010397287312703405 -0.006173021983784753
-0.005300127015607086 0.009491453952576402 -0.0019847340433036056
-0.01989083263656591 0.00881392985364819 -0.004250531590533812
-0.007374537536625475 -0.013032002517780434 0.004559521638656461
0.0027502682819468658 0.0003312833602122196 0.001080958936615001
-0.003997404432912377 -0.018394862206711365 0.014683823997230123
-0.020963953877022688 -0.00067337786794458 -0.005033755033568268
-0.02683548623893142 -0.004829577642403474 -0.020219655674578237
0.01072599066137717 0.015730466016441947 -0.030783637697798554
-0.027567677082018863 0.04058297083758153 -0.02761254846956241
-0.01954058279639976 0.040508991265740486 -0.04269225565646868
-0.009990894019955518 -0.02212398642302904 0.013651917718619032
-0.00386066008108593 -0.01707350115073879 0.0045569191987249345
0.002174176740270523 -0.019137008193716762 0.013139666369151632
-0.003980854953575289 0.0024967285978131247 -0.006937305484019892
-0.008423711751785653 0.0005569502189548828 -0.0036010661864755373
0.0007613699450056032 0.00032449509246730264 -0.005576704176755806
0.0019339208251435405 0.01609824831343134 -0.008944592160524279
0.028429137836842065 0.004678063309739503 0.04691065410197539
0.008410544462140845 0.009332046925486224 0.0008946299168057032
0.015128051459575416 0.006392078916625122 0.017956707789671886
0.01865590934532105 -0.008117887826850963 0.014002456377690514
-0.016465545144468626 -0.016511613421494938 0.002852250079389239
-0.010588636119488464 0.01536051200752993 0.0012889919384074062
-0.007961960618656826 0.031153495088073475 0.008750910414230945
0.01821151802997553 -0.003944674034816797 -0.0053486477860889775
-0.017314228017953726 0.007691963443614588 0.001639626237791335
-0.014441865016173085 0.01259721092652089 0.003159427119707389
-0.006085173653347682 -0.006837693016360709 0.008194732416230775
-0.001814562161316524 0.04595809491866478 0.027879666996084268
0.0009164021480551582 0.02088388001488095 0.048439191181141185
0.008895983364492828 -0.02269407389235568 0.014051479220282269
0.019760795442866217 0.06325220980132502 0.027739328517684868
0.00866859204262396 -0.0038229632946055812 -0.0032597264031222163
0.00012261768032573717 0.0031808330794212336 -0.01794779004985278
0.013448730616355403 -0.0031662729344122727 -0.017902899811995505
-0.011485112050060269 0.0027077499148789414 -0.0039614161739099756
0.009053455174544362 0.018122459122444638 -0.004455166313755632
0.0006948057262175802 -0.030753031287216247 -0.003605783882672571
0.004293245307196827 -0.03964358046916055 -0.007605085095881637
0.008918251989067115 -0.01478378276974751 -0.0028063795488252508
-0.02174564815417814 0.00048189230558282254 -0.0025065210122156138
-0.011529862620955142 -0.0016611350790662175 -0.007228902720505016
-0.029692649774055314 0.010598393101205772 -0.007608474088112126
-0.02225510236205794 0.019209812470031604 -0.011871017325275198
-0.01346156102757982 0.022445130823003544 -0.0028578440056360632
0.015071584286917888 0.03214635774759406 0.03209901830221879
0.02043354951884864 0.02347039970155073 0.04695505990945555
0.02029062372619874 0.011113759689958985 0.03711829612610682
0.026427396541063592 -0.007433808671853401 -0.002075439837912966
0.019600723809219303 -0.024476689554203117 0.03592374273182563
0.01669100090976857 -0.01834757080465532 0.02091975235883471
0.030120139736998727 -0.0025962505567153436 0.024734335127791218
0.010950713610926113 0.0036332628427859733 -0.017358336692920185
-0.0044505497455466945 0.00022973414532664456 0.0060173598025474
-0.0076026542628150956 -0.018904797368889302 0.004357777238089657
-0.008365350001303075 -0.016210281624930947 0.006286422348538947
0.008197771558125178 0.008979288083988915 -0.011887182571142883
-0.002464974402966881 0.019366087825392182 -0.0023420709260169588
0.007916223144956202 0.003070848642569453 -0.005269768405825559
0.002834975617093705 0.0023065950824285044 -0.022302765738880584
-0.006118377227391296 -0.002511353688079433 0.0032949849564242193
0.009545346073797215 0.006709513836571362 0.017306871701898346
0.008600300911208891 0.010064235249919758 -0.01119850049509725
-7.725633661542635e-06 -0.002854008385827613 -0.005697767124530465
-0.03937848952338841 0.01630658231867447 0.04893656680452621
-0.010842360218386232 0.015795228487834198 0.006486420090924156
-0.013418895822019201 -0.013470086282690138 0.009674602673425422
-0.00579053907465334 0.007698839485116157 0.009231077572999605
-0.006783086275382369 0.011124650029427467 0.009395272400446523
-0.0015569172618197537 0.009185899225728501 0.0033623732830618887
-0.0035717759937245446 0.007177052491758369 0.009149889463683702
-0.00018364660722395716 0.026895975388004482 0.03753974943480276
-0.023373999039887662 0.020695515659109473 0.00902211412124611
-0.023487467833698226 0.06497075502152813 0.013209567582728007
0.000702713581513752 0.05246854395273636 0.014149973859820753
-0.011692252662936305 0.06858054835252521 -0.0070568820685107565
-0.01241886563147562 -0.05078424677245585 0.03781469974497611
-0.004591016916105692 -0.02803800712217481 0.04372220603276549
-0.008095475595877024 -0.03070759191090484 -0.008790578925311286
0.014038368600277528 -0.0019404758002152314 0.03628586625019927
0.008054221148086483 -0.021217082932574932 0.06406058372633612
-0.019175743940678894 0.03172372620030293 0.057322941778884966
0.002037063703850578 -0.03284646355556691 0.0252312944441662
-0.02692425023976591 0.024801443143542063 0.06597219269276566
0.03138945546095323 0.015870369835028986 -0.03650768657233426
0.011806010926988499 -0.02090167267976334 -0.03588688782448653
0.015040249628933336 0.022068711194508005 -0.043861905271462165
0.02076337313121935 -0.023550594505135587 -0.02215737991232943
0.03589764525505614 -0.01676850711989613 -0.022974620167161383
-0.02125154540334923 -0.09021012653830772 -0.023280282155683816
-0.04378328832119294 0.01813904790288563 -0.01368608516412094
-0.028179178278467176 0.031324001854326544 -0.02802721664348591
-0.021043657599093445 -0.0037223666742452646 -0.03842268174411788
0.008630143169184836 -0.031661332009131266 -0.005574311421905664
0.02114099707140874 0.032451646917490105 -0.026180431227436535
0.03353012681239919 0.028948203012636117 -0.012408985325036793
0.05291808942752562 -0.04052241461939729 6.344096090782915e-05
0.04452603248093163 -0.03798839754241396 -0.007875967024845058
0.00719022627689988 0.008043521019747348 0.04667394505972096
-0.0016721552372314199 -0.02728774555995995 0.051374629739006056
0.01423181458169864 -0.02018270304344014 0.0589898978100299
0.005328883395103866 -0.026960807667496818 -0.019877188987473104
-0.00703832394119568 0.00016698085321534056 -0.003921028291944139
0.006853586170878312 -0.01845219433785242 -0.023484334490384607
-0.0011827168122848979 -0.026780162912394836 -0.023258620115401286
0.002446502270895023 -0.020552422085028093 -0.009064859320904709
0.025783032347992677 0.02137617245972464 0.0025355734875963567
0.0108306347293101 -0.0002354765097214092 0.013607727999013261
0.019508347043835823 -0.01140282271445343 -0.030340518676316895
-0.010921821398387089 -0.018053432168623693 -0.011456857446961363
-0.0108128747750922 0.00258167386716878 0.052396979648972844
0.004051558696729893 0.0016383291278862509 0.004262333980993906
-0.025660589358626293 -0.011378201762046031 0.015172897264661107
-0.0006239473804814897 0.005296819822577894 -0.008655490159578765
-0.016736165112943197 -0.0019303466630530926 0.012195312978056228
-0.022027731932832587 0.0032189155824994165 0.0032078755929813387
0.012140961137723153 -0.012230145961465239 -0.01531859872676747
-0.004777331373376703 0.029691464773261213 0.0052566211658588375
0.009487909323678738 -0.016545734761369266 -0.019475115867079992
0.021917179438597136 0.03559765674172101 0.03032206929509417
0.006734119046369749 0.017998436066836737 0.0471786600856783
-0.0048710807142633055 -0.027874884088082544 0.030999345875113042
-0.0014768779286056881 -0.01302976367202775 0.01796411246751754
0.0023633609319137897 -0.0041830270568404436 0.00542604070978027
-0.0008618865089956544 9.041217489280234e-05 -0.0022628824894277456
0.0028927487374768657 -0.004723844879878994 0.006273375800693667
0.0012643625302313413 -0.005101650931906325 0.010478619761594992
0.0038865578512299235 0.003122583569290496 -0.0006940502564259422
0.014792167919011605 -0.018001403519390124 -0.009113990212259917
-0.01595074366437092 0.019443494373153812 0.003930054887279575
-0.0403700724865075 -0.0682849924713031 -0.01750246042398521
-0.007367151102720325 0.006413691519127145 0.005121130517005154
-0.010688055456641721 -0.0051445497046689066 0.0017405674114904135
-0.004344286790893652 0.0071276378717636535 0.003461911233065125
-0.007864687437263429 -0.003666680654131522 0.013282980108034047
-0.007862205069615763 -0.01621748975400632 0.02446889667099128
-0.010918469459473673 0.012667971355150796 -0.007001780047495771
0.017005087382300037 -0.0128596682214077 -0.03486958619350091
0.01296398893557286 0.05536044135798253 0.024962372135523787
0.001780187020449932 0.041402236342007646 -0.00953981306933453
0.04213923275981336 0.017755155071307035 -0.009711250061449118
-0.015590694661402936 0.02156821076250443 0.03581522147918534
-0.02815672981473591 -0.0021244300520133555 0.03237900516176206
0.020484339219195912 -0.0058035547943608365 -0.05022086438318965
0.04721512192044668 -0.016500439270353787 -0.004821087483394789
0.0631916348690883 -0.01876623670182323 -0.0029516837368171157
0.04505575710138767 -0.013865741039377485 -0.011278143048808772
0.04182544896088673 -0.0076281098008816745 0.0001358341651748311
0.027060954969938936 -0.014546216643858837 -0.013996143231823936
0.03239231994464541 0.00030256845120906135 -0.02527322325252649
-0.0423790899072319 0.028108107974728902 0.0011936209557577302
-0.03392437822039343 0.007227254141532176 0.007692399759928806
0.025575523196319658 0.017048866881284465 0.045112543986105307
0.027747202344722628 0.012871397826199574 0.0400799304442984
-0.003932118289685699 -0.00328414559520675 -0.01916786414100679
0.00382593292899662 0.006935781416574991 -0.01752659280259074
-0.00544827836347926 0.008519669736917049 -0.01884489766945843
0.0021527973431299248 0.0103861211909522 -0.009658649894230568
0.0004084440954149871 0.011726395767882682 0.0019210509539064346
-0.010644369461368612 -0.012636657380349869 0.013173049898928124
-0.0006674401416585446 -0.0075328401406494225 0.008166588434809418
-0.019167311163153095 -0.00734323736107719 -0.007888439454755338
-0.007798925364093797 -0.003972248358650264 -0.004815403738983911
-0.011555420041441245 0.005119376048473851 -0.0029647750634289156
-0.016234090805568542 -0.01331923560192779 0.004104180056292502
-0.024059571771579323 0.0001810200719110463 -0.0018299702610669918
-0.008824577565026215 -0.00784010527061546 0.006312919293524143
-0.014111502290742484 -0.007714782199106458 0.0020563973516109185
0.01311827933259829 -0.0193533269636923 0.023017516532940967
-0.04018634211336975 0.04105048461295041 0.018334326713753544
0.01809582418789221 -0.0014414584658900035 0.02818603256074315
-0.005412964016333738 0.017338199637229566 0.004425803185284881
-0.01170380939207141 -0.011129480609146127 -0.00907395287271373
-0.007629282266537512 0.01119368396306201 -0.002018471165794174
-0.01598230856417765 0.0019243510255757133 -0.013626041719481828
0.00632102355103331 -0.004801324519634058 -0.030586099734654103
0.008424096589280759 -0.008156564474926655 -0.015467966084876557
-0.03716058333519817 0.012590717200128738 -0.02573466796423255
0.0281652017473676 0.026865337499066368 -0.013547307959453775
0.0022193617104536946 0.0008456898637340265 -0.015704958870528463
0.0006168101740257551 -0.014011425187733226 0.00553435609432674
0.00467907439531756 -0.013464676018878586 -0.009546344114014227
0.02115613441225412 0.08343426852981009 0.005517035310594979
0.0038881297951511595 0.019249778882322377 -0.015486233105866307
-0.005464189046484587 0.0017988110111870725 -0.00698365743348577
-0.0019015919457554791 0.0031176279437575825 -0.0165202536446802
-0.00718241768794957 0.012394240724398297 -0.023455068315969357
-0.0007359368991134451 0.016457292095260048 -0.001197712984097059
-0.0030607653112890445 0.004795227676611798 0.0033212364403915787
-0.0023484723481354375 0.0010154296079178725 0.018572559102022882
-0.0019544168972524686 -0.05460108808005669 -0.023312647597391316
-0.028283066707702562 -0.04248599340627565 -0.022115879914029784
-0.010876494342040164 -0.05322625088508395 -0.021734039313105212
0.004478794134089975 0.014764012629785373 0.015554948857927735
0.0007038572157472865 0.029392908035913393 0.0015286216905881225
-9.288344222709301e-05 0.015143730335391093 0.022597444825783963
0.015314270737473781 0.04823966953612825 0.02424931912901672
-0.022018469463863058 -0.01984046027733921 0.016724055272919276
-0.022166081623730148 -0.021765056909307603 0.011459865568730741
-0.019633957677692236 -0.03322953968287275 0.03612051884257526
-0.016311843055697797 -0.04191193722121148 0.020898457940814852
-0.0011284693020691026 0.0018108058298614124 0.013922559684177011
0.009461088301219802 0.01141999748747818 -0.028346310348227512
0.008998863449404272 0.009135964691488476 -0.04881704085045667
-0.0007254352178936166 0.014213174344102577 0.00330802690832262
-0.0014772432047221267 0.01800640242991429 0.004539135036389547
-0.035600283103707636 0.015346265954646202 -0.011723753772213722
0.0025305193044361587 -0.021443723812889313 -0.03686411493805428
0.023715282597477842 0.037472692963451536 -0.041364820360250174
-0.025285148041305203 0.006347073840566014 -0.032690761591707
-0.04372890518058648 0.03589687104118106 -0.04002407735027454
0.004535546488540394 0.01414785660754368 -0.013206187465032798
-0.008681963203326684 -0.019019324715809853 -0.002705627661218812
0.01465611827867669 -0.03456324841392885 0.003363183887134527
-0.011772655236556549 -0.017995676552704558 -0.010026675899508826
0.003969930823200202 0.006990820154206499 0.003568526459514643
-0.001633979704973018 -0.006875719255203835 0.004139149686760091
0.005103214570129105 -0.04298836722457677 -0.010965297702827372
-0.022075591892656204 -0.062141746310661446 -0.03667219672018412
0.0002518904580377172 -0.015429835861729527 0.01656662976342065
-0.007561683325913242 -0.019948150611939712 -0.005790558093600765
-0.00846149321864081 0.00745141197097334 0.004484419870090572
-0.013091452099566511 0.006527873942582022 0.004330761511965142
0.0323559709596988 0.05740519181670681 -0.024936118052038197
-0.014588887787679845 0.012479104322942053 0.0008205654108182912
-0.01090075929485013 0.0034957444231971035 0.0032219562551344546
-0.007473809790502741 -0.022848482670953 -0.04681816318992909
0.0032054553289068734 -0.032997562099626176 -0.0447973664546988
-0.008237769917364943 -0.016549855092440714 0.0024420750625389746
-0.00933383057786835 -0.01161277648288931 0.002801882739813645
0.014392960425710607 -0.013599018136293701 -0.022086217529602162
0.015288889053522955 -0.028088176284899447 -0.04412277517162258
-0.030169957103920376 -0.05411333013251973 -0.008897121708909553
-0.012873403151911142 0.006236060388812031 -0.04567982421468736
-0.035745453692381975 -0.054739101404661594 -0.01050041305636945
-0.03170414920489061 -0.03967114638677004 0.01855196966493745
-0.008114176531509705 -0.06368093550982681 -0.011662194222833922
-0.012278573206001064 -0.07406968415577368 -0.016609741786913986
0.011664278271093969 0.008155750481426912 -0.015859860989389168
-0.022136418993542656 -0.013790755650829644 -0.027696524178953526
-0.0075162683239558764 0.04973014931859966 -0.00927008934331436
-0.04771295128098958 0.04903442044205413 0.028977085274235634
-0.014848695160245921 -0.012447747154647014 -0.0043395870381756985
0.02363454814556442 0.028938958364196486 -0.04027710101898857
-0.03920351297166663 0.008913814540065762 -0.03567137679582391
-0.022657630432262838 -0.00028955528338296395 0.058899231670292
0.001631951589436498 0.004751389023257842 -0.03258604913726328
-0.0020712094441252458 0.01273866741066604 -0.03687011985101328
-0.01021738368118883 -0.005931090426645481 0.00468926925400983
0.04508945930614149 -0.03305222654389702 -0.0746846109264391
-0.01926074559368048 0.01911764049651261 0.055124151029948616
0.015078590498419165 0.02389117440251451 -0.007713588276561351
0.020223664753715814 0.025515043604967504 0.0006922020708885285
0.023522723084293144 -0.0030919406488795127 0.0037544747569663306
-0.02607368067697151 -0.013560803390753292 0.02699637966516785
0.029610682784590486 0.05489875449161679 -0.010970674550659646
-0.011613770906257058 0.03869907223056939 -0.01405679628921151
-0.056699590875184454 -0.014718727359357867 0.03223255508847478
-0.01580124002582655 -0.016394357709249723 0.022741725509953545
0.01263669330733825 -0.09893883602738408 -0.0273882251014227
0.009348996548065302 0.006639471234313317 -0.00726311116562929
0.00950281859622718 -0.015795529379222892 -0.05239747682817185
-0.0015426603668178148 -0.03089958056887042 0.02008099484404778
-0.0176776714588312 -0.030462577784321092 -0.037014889267864455
0.02616101074490257 -0.009472916274503227 0.0012383357633470714
0.023096997619115506 -0.009177463844898457 0.0062161173644460326
0.01327446675448625 -0.011357491425478828 0.0037872744854257692
-0.021708203313850406 -0.006574722969136143 0.016477483121308117
-0.011393756816843438 0.01677830639894096 -0.005493372808024921
-0.025954370956491613 0.05399472561597204 -0.010854253914200297
0.0017496199055057615 -0.008060783447277248 0.0022860572042114054
-0.03537138469338747 0.023330437812404455 0.03813069980727626
-0.016030202036634147 -0.02882167107076719 -0.01693406415815321
-0.01664334455733699 -0.04045326706661714 0.005600016194008717
-0.02081104439678841 -0.012524810969171508 -0.014625295596068542
-0.012057547698990385 -0.005637174044375165 0.005023967696761137
-0.003242969792101564 0.010364313485607131 0.009104305655733568
0.014571989787928865 -0.011063523928297632 0.006694729599014011
-0.006184472317076385 -0.03032153786745955 0.024620009413830246
0.04054810881891385 0.00925254437159377 -0.003717756994911259
0.05744171164703476 0.014318129368368569 0.0003002244603034603
0.0030160230981162305 0.011904458164636039 0.002395614709653787
-0.0660906283779613 0.025894676250442995 0.036216571127609246
-0.0060528581882936024 0.01836890790863841 -0.011601311641314387
-0.05921403375116565 0.011686815200495838 0.017488673482889714
0.00982762786713201 -0.023682997691370854 0.01418780389259059
0.0016628460499364828 0.004119934038721354 -0.013358690692084188
0.04429589792470635 -0.0030903156901585984 0.015286585476431228
0.05481675087095297 -0.014555027090578859 0.04009430816880085
0.02145407361206542 -0.016351067573416492 0.0380912069238876
0.012609271157663355 -0.027331044614992472 0.018279642038276672
-0.008716722564777464 -0.0013957966145997155 0.02796343476788153
-0.004023805081007478 -0.017546264862028024 0.04445021655825371
-0.0013560275045948866 -0.1250012275715338 0.026951709439582437
0.004693208468460996 0.052364246358022726 0.010255363917900657
0.0044425256505784836 0.0004759307587051359 -0.040231201876385035
0.022507516854603855 0.011026053915485402 -0.026859533798878836
0.0077913971569683995 -0.033748775737586986 -0.06729402540868779
-0.03685030643894333 -0.01972103286265783 0.03379768048476465
0.009843572727694662 0.029423295024151204 0.032015084098755024
0.02594028549415796 0.008765426399197968 -0.006639743799796275