# vtk DataFile Version 2.0
Really cool data
ASCII
DATASET UNSTRUCTURED_GRID
POINTS 584 double
-1.0 0.0 0.0
-0.9600374798207896 -0.027590413451835553 0.04
-0.9589620457797374 -0.028177574718636023 0.0
-0.9553815213922792 0.019675326217199102 0.04
0.6719637381218919 0.02110482676547816 0.0
0.6414775595248179 0.020020515529780993 0.04
0.6571281419012174 0.06 0.0
0.6240641012293764 0.022292119262118645 0.0
0.687851041884645 0.021313940245698455 0.04
0.7030120427199962 0.06 0.04
0.657128141901218 0.06 0.04
0.7030120427199952 0.06 0.0
0.6885310613992013 -0.0196061899732657 0.0
0.6720046167250797 -0.020579604775701428 0.04
0.6407079554435648 -0.019738458112036637 0.0
0.7171469290115033 0.021165332718839136 0.0
-0.7921016077200962 -0.06 0.04
-0.7604373514312079 -0.019298436119384588 0.0
-0.7479973317145423 -0.06 0.04
-0.7479973317145417 -0.06 0.0
0.7030120427199962 -0.06 0.0
0.7030120427199952 -0.06 0.04
0.6571281419012174 -0.06 0.04
0.7479973317145417 -0.06 0.04
0.7325903506195701 -0.020274227246539274 0.0
0.7176321617908783 -0.019839353713154383 0.04
0.7604373514312079 -0.019298436119384588 0.04
-0.8488906624897727 0.019856366527450334 0.04000000000000001
-0.8052789150181434 -0.019306901564895652 0.0
-0.805541091654972 0.020469431563422978 0.04000000000000001
-0.8203038938742353 -0.020636147377884773 0.04
0.897529295217204 0.022569895749215793 0.0
0.8488906624897727 0.019856366527450334 0.0
0.8569454102823642 0.029774901726562965 0.04
0.8777357995360431 0.06 0.0
0.9553815213922792 0.019675326217199102 0.0
0.95349853104827 0.02147987272312249 0.04
0.9103536180674616 -0.021283841161765512 0.0
-0.5450807564691462 -0.01715484187473429 0.04000000000000001
-0.5372746904547943 0.02439300391790418 0.04
-0.49049502097572617 0.000359712426279548 0.04000000000000001
-0.5409244119327052 -0.005150142234760652 0.0
-0.48901428549955095 -0.02776609156780287 0.019771763033692314
-0.4642419910175897 -0.06 0.04
-0.43891524330526177 8.673617379884035e-17 0.04000000000000001
0.7479973317145423 -0.06 0.0
0.9600486361512215 0.06 0.04
1.0 0.06 0.04
1.0 0.06 0.0
0.9192992165657531 0.06 0.0
0.7479973317145423 0.06 0.04
0.7309057796957548 0.02177174945441851 0.039999999999999994
0.7479973317145417 0.06 0.0
0.7613659684934695 0.020945326906433456 0.0
0.7736855084518748 0.020914979208800512 0.04
-0.8570647961856006 -0.015388027432140593 0.0
-0.8569454102823642 0.029774901726562965 0.0
-0.8649535140731797 -0.02016838668923704 0.039999999999999994
-0.1726925416005594 -1.214306433183765e-16 0.039999999999999994
-0.22806385632140147 1.0755285551056204e-16 0.039999999999999994
-0.2006519843784229 0.06 0.0
-0.22806385632140147 -1.1796119636642288e-16 0.0
0.438611990705585 -5.252150912499892e-05 0.04
0.41358849559293387 -0.06 0.04
0.4135884955929341 -0.06 0.0
0.4642419910175897 -0.06 0.0
0.4782715374234063 0.0302584611690398 0.019894876072988572
0.513903464641242 0.06 0.0
0.49049502097572617 0.000359712426279548 0.0
0.46424199101758934 0.06 0.0
0.46424199101758934 -0.06 0.04
-0.8164681441220105 0.022269284396602723 0.0
0.48912437490067595 -0.00041996788971368666 0.04
0.4642419910175897 0.06 0.04
-0.8353421249080566 0.06 0.04
0.8649535140731797 -0.02016838668923704 0.0
0.8973163514988121 0.02144006532192878 0.04
0.5625923446839085 0.06 0.04
0.6103276788742331 0.06 0.0
0.5943416245309461 0.018901239582525348 0.04
0.5790918012159274 0.021628695864523574 0.0
-0.593631917725493 -0.01946781888421301 0.04
-0.6103276788742336 -0.06 0.04
-0.6407079554435648 -0.019738458112036637 0.039999999999999994
-0.6264545933043166 -0.021459100211208025 0.0
-0.6103276788742331 -0.06 0.0
-0.6103276788742336 0.06 0.0
-0.6240641012293764 0.022292119262118645 0.04
-0.6414775595248179 0.020020515529780993 0.0
-0.5943416245309461 0.018901239582525348 0.0
-0.5790918012159274 0.021628695864523574 0.04000000000000001
-0.5625923446839077 0.06 0.04
-0.6103276788742331 0.06 0.04
-0.5625923446839085 0.06 0.0
-0.7325903506195701 -0.020274227246539274 0.039999999999999994
-0.7176321617908783 -0.019839353713154383 0.0
-0.7309057796957548 0.02177174945441851 0.0
-0.7736855084518748 0.020914979208800512 0.0
-0.7613659684934695 0.020945326906433456 0.04
-0.6571281419012174 0.06 0.04
-0.6719637381218919 0.02110482676547816 0.039999999999999994
-0.7030120427199952 0.06 0.04
-0.687851041884645 0.021313940245698455 0.0
-0.029521960903255984 -0.06 0.04
-0.05860957814939871 -6.938893903907228e-17 0.039999999999999994
-0.05860957814939863 5.898059818321144e-17 0.0
-0.08769719539554167 -0.06 0.0
-0.08769719539554144 -0.06 0.04
-0.2823507532564078 -5.204170427930421e-17 0.04
-0.25547572826437986 0.06 0.04
-0.25547572826438003 0.06 0.0
0.38751191920162714 6.938893903907228e-18 0.0
0.3352618020299945 -3.469446951953614e-18 0.0
0.36192316205531716 0.06 0.04
0.3619231620553172 0.06 0.0
-0.36192316205531716 0.06 0.0
-0.335244821032008 -1.1796296425746478e-06 0.0
-0.3352618020299945 -3.469446951953614e-18 0.039999999999999994
-0.38745316199969926 -7.894682722445895e-06 0.0
-0.3619231620553172 0.06 0.04
-0.3092257782484355 0.06 0.04
0.28235075325640757 5.551115123125783e-17 0.039999999999999994
0.30922577824843556 -0.06 0.0
0.335244821032008 -1.1796296425746478e-06 0.04
0.3092257782484355 -0.06 0.04
0.36192316205531716 -0.06 0.0
0.38745316199969926 -7.894682722445895e-06 0.04
0.3092257782484355 0.06 0.0
-0.38751191920162714 6.938893903907228e-18 0.04
-0.28235075325640757 5.551115123125783e-17 0.0
-0.30922577824843556 0.06 0.0
0.6103276788742336 -0.06 0.0
0.593631917725493 -0.01946781888421301 0.0
0.6264545933043166 -0.021459100211208025 0.04
0.4889627886584896 -0.027603176797077415 0.020155725176282127
0.583287522480325 -0.023728770665855194 0.039999999999999994
0.5450807564691462 -0.01715484187473429 0.0
0.5409244119327052 -0.005150142234760652 0.04
-0.48912437490067595 -0.00041996788971368666 0.0
0.3619231620553172 -0.06 0.04
-0.657128141901218 0.06 0.0
0.9600374798207896 -0.027590413451835553 0.0
1.0 0.0 0.04
0.9589620457797374 -0.028177574718636023 0.04
0.5625923446839077 -0.06 0.04
0.5625923446839085 -0.06 0.0
0.7766984080639845 -0.02052537972713625 0.0
-0.438611990705585 -5.252150912499892e-05 0.0
-0.583287522480325 -0.023728770665855194 0.0
-0.9600486361512215 0.06 0.0
-0.95349853104827 0.02147987272312249 0.0
-0.9192992165657539 0.06 0.0
-0.9192992165657531 0.06 0.04
-1.0 0.06 0.0
-0.14473309882269625 -0.06 0.04
-0.14473309882269605 -0.06 0.0
-0.11621514710911887 -1.214306433183765e-16 0.0
-0.17269254160055947 1.1796119636642288e-16 0.0
-0.14473309882269625 0.06 0.0
-0.11621514710911884 1.214306433183765e-16 0.039999999999999994
-0.8353421249080566 -0.06 0.0
-0.8353421249080575 -0.06 0.04
-0.8973163514988121 0.02144006532192878 0.0
-0.897529295217204 0.022569895749215793 0.04
0.11621514710911887 -1.214306433183765e-16 0.039999999999999994
0.05860957814939871 -6.938893903907228e-17 0.0
0.05860957814939863 5.898059818321144e-17 0.039999999999999994
0.08769719539554144 0.06 0.04
0.6103276788742336 0.06 0.04
0.5139034646412424 -0.06 0.0
0.9096368506350345 -0.020963842829632554 0.04
0.805541091654972 0.020469431563422978 0.0
0.8052789150181434 -0.019306901564895652 0.04
0.8203038938742353 -0.020636147377884773 0.0
0.08769719539554144 -0.06 0.0
0.08769719539554167 -0.06 0.04
0.9192992165657531 -0.06 0.04
0.8164681441220105 0.022269284396602723 0.039999999999999994
-0.9103536180674616 -0.021283841161765512 0.04000000000000001
-0.8777357995360431 -0.06 0.0
-0.9096368506350345 -0.020963842829632554 0.0
0.8570647961856006 -0.015388027432140593 0.04
0.7921016077200956 -0.06 0.04
0.8353421249080566 -0.06 0.04
0.7921016077200962 -0.06 0.0
0.4135884955929341 0.06 0.04
0.43891524330526177 8.673617379884035e-17 0.0
-0.7921016077200956 -0.06 0.0
-0.08769719539554144 0.06 0.0
0.14473309882269605 0.06 0.0
0.1726925416005594 -1.214306433183765e-16 0.0
0.11621514710911884 1.214306433183765e-16 0.0
-0.029521960903255984 0.06 0.0
0.0 0.0 0.0
0.17269254160055947 1.1796119636642288e-16 0.04
0.14473309882269625 0.06 0.04
0.0 0.0 0.04
0.2006519843784229 0.06 0.04
0.22806385632140147 -1.1796119636642288e-16 0.04
0.22806385632140147 1.0755285551056204e-16 0.0
-0.6720046167250797 -0.020579604775701428 0.0
-0.7030120427199962 -0.06 0.04
-0.7030120427199952 -0.06 0.0
0.25547572826438003 0.06 0.04
0.30922577824843556 0.06 0.04
0.25547572826437986 0.06 0.0
-0.02952196090325599 0.06 0.04
0.2006519843784232 -0.06 0.04
0.14473309882269605 -0.06 0.04
0.2006519843784229 -0.06 0.0
0.14473309882269625 -0.06 0.0
0.2823507532564078 -5.204170427930421e-17 0.0
-0.36192316205531716 -0.06 0.04
-0.41358849559293387 -0.06 0.0
0.5372746904547943 0.02439300391790418 0.0
0.5139034646412424 0.06 0.04
-0.5139034646412424 -0.06 0.04
0.41358849559293387 0.06 0.0
-0.7171469290115033 0.021165332718839136 0.04
-0.7479973317145417 0.06 0.04
-0.7030120427199962 0.06 0.0
0.08769719539554167 0.06 0.0
0.029521960903255984 -0.06 0.0
-0.02952196090325599 -0.06 0.0
0.02952196090325599 -0.06 0.04
0.02952196090325599 0.06 0.0
0.029521960903255984 0.06 0.04
-0.47805793986482265 0.03008719549728311 0.01940109733029794
-0.4642419910175897 0.06 0.0
0.6103276788742331 -0.06 0.04
1.0 -0.06 0.04
0.9600486361512205 -0.06 0.04
0.9600486361512215 -0.06 0.0
-0.3092257782484355 -0.06 0.0
0.877735799536044 -0.06 0.0
0.8777357995360431 -0.06 0.04
-0.41358849559293387 0.06 0.04
-0.4135884955929341 0.06 0.0
1.0 -0.06 0.0
1.0 0.0 0.0
-0.14473309882269605 0.06 0.04
-1.0 -0.06 0.0
-0.9600486361512215 -0.06 0.04
-1.0 -0.06 0.04
-0.7921016077200962 0.06 0.0
-0.9192992165657531 -0.06 0.0
-0.9600486361512205 -0.06 0.0
-0.7921016077200956 0.06 0.04
-0.7766984080639845 -0.02052537972713625 0.04
-0.5625923446839085 -0.06 0.04
-0.5625923446839077 -0.06 0.0
-0.877735799536044 -0.06 0.04
0.7921016077200962 0.06 0.04
-0.3619231620553172 -0.06 0.0
-0.7479973317145423 0.06 0.0
-0.8777357995360431 0.06 0.04
-0.4135884955929341 -0.06 0.04
-0.46424199101758934 -0.06 0.0
0.513903464641242 -0.06 0.04
-1.0 0.0 0.04
-0.877735799536044 0.06 0.0
-0.30922577824843556 -0.06 0.04
[...]
POINT_DATA 584
VECTORS displacement double
0.004425884858759663 -0.006459003884436709 0.02002960040024603
-0.006069385282083734 -0.022692263237066117 0.019827644162150833
-0.008196403019342274 -0.01902629775603793 0.018001924748043973
0.0014217863511640238 -0.017848169075196197 0.01660433682261013
0.0001288851510355995 0.001097352887289304 -0.003807362355341881
0.0006410246697550753 0.0006696457298303652 -0.002469140028843387
-0.0014950396563017624 0.0010197514127595483 -0.0028465297489447972
-0.0003036215004786472 0.0010489706309562332 -0.0014060876978680347
0.0006617589787313101 0.0005609463110675167 -0.0043670474045157505
-0.0006453659043204305 -0.0003145497578290424 -0.004547258425419783
-0.001020342932855414 0.00039964025415755854 -0.0027435569937962765
-0.000809863243216832 0.00023318795834840805 -0.004492902793893134
0.0027681418710234474 0.0013546076506337575 -0.004880353727698929
0.0030730167440482896 0.0005106238695781603 -0.00443406697945649
0.0021694368274529498 0.0010795875926676668 -0.0030697227086222685
0.0009852453741527793 0.0008026021589927711 -0.005171442876908464
0.015305567543767086 0.006518767097196701 -0.00868576898373248
0.00326835411680488 0.005696076122548869 -0.011416078613388942
0.01681715356443565 -0.00813726869562055 -0.013968555905421476
0.02161217432726887 0.004130097398725288 -0.015341851693225774
0.005396569727577933 0.0017158842070391282 -0.005741940907568458
0.005604344984388397 0.0012808600120352218 -0.005576855833458795
0.005532063082137763 0.0007561550974878169 -0.004577108501624096
0.005050295142887203 -0.000410796540466126 -0.005660232764543503
0.0035781871551759993 0.0007261389131677504 -0.005351132973178461
0.003318642055552951 0.001136276531481419 -0.005387494207645475
0.003292908481427121 -0.0007860549210395076 -0.005223508726812055
-0.0022044466055310594 -0.0069573796236514635 -0.0018853741422341951
-0.005420949156086536 -0.016253561866278292 -0.00637998979154032
0.0013485347341712648 -0.018411081096710132 -0.009746782903989887
-0.009218337195861992 -0.01866945767620161 -0.006703215454954348
0.0026657404431412344 0.0011453330238395975 0.000778424869086754
0.002655125865215797 -0.00013802707579005906 -0.0019253172296186721
0.001145032948810815 0.0005705782975527612 -0.001750433228303686
0.001288291967714893 0.001058485461165285 -0.000803989847993863
0.0029033439546649687 -0.002330023019772969 0.003713660747299506
0.0017012659747687765 -0.0020307290871557507 0.003575821827215957
0.004985737244627244 0.0005477339378805096 0.001991635428613059
-0.01223632067284964 0.01973365922297816 -0.01396471590168983
-0.018749778512213273 0.01558510892893634 -0.011983201692227182
-0.00955512563529201 0.00413522455449112 -0.013611590096288838
-0.011858072448556738 0.02212122540906369 -0.010814321368204467
-0.004818113706598289 0.0012662547788567474 -0.011894535989756773
-0.011853553698458207 -0.023170266721942914 -0.011690547247387802
-0.01156977002190187 -0.010281787202920665 -0.013159790402831795
0.005644858429826171 -0.00013855159562310923 -0.0053680130575098906
0.00047818617862502977 -0.0018385029721413467 0.0035211673834200942
0.000409680109121608 -0.0020358982998182717 0.00524372441545946
0.001822181815710053 -0.0022834666214607497 0.00527172500715344
0.001933424473279821 -0.00010759421962316097 0.0016320216737538591
2.482565917681526e-05 -0.00018418565795569705 -0.0052768470793129445
0.0010634435334791977 0.000703097932893765 -0.005150668797942647
0.0004120595063289418 -0.00047933749588220377 -0.005441194667643878
0.00167521374834616 -0.0008700225071354151 -0.004971738160410523
0.001206418002881349 -0.0013938623874018864 -0.0050192077737736185
-0.006042111778578445 -0.009711059779227345 0.003235553158302505
0.0010387602300145232 0.0003193401774636126 0.0034169129522269677
-0.007208505693697488 -0.007497406028876437 0.0016210027627915182
-0.006043709328584031 0.0031973840648184767 0.01481928378179136
-0.005237495080356878 -0.00631284222281192 0.01296153991443193
-0.008332923623275484 -0.002088772300599208 0.014572310451909595
-0.005000390342229272 -0.007457088734182255 0.013727779600631446
0.0005147386529734014 0.0007122947957793868 0.007104851426603748
0.006237972474725194 -0.0011637020184858441 0.0076155591520277195
0.006070837154770664 -0.0013686888362163404 0.007177585270403804
0.005366275466921901 0.0014369888270414084 0.006268832887797099
-0.000122074971818516 0.0007935068645004757 0.006967187155623518
-0.0019594784391178885 0.0021019621309850403 0.006271867420436986
0.000434949001183268 0.0012492636767109236 0.005865053873432405
-0.0012162157541382296 0.0008249072377561235 0.007351242592057662
0.005660722646858349 0.001609151737072314 0.006434831417755516
-0.0004547084253976902 -0.019842563706783087 -0.00843358211930918
0.0010799410042407825 0.0005675299081995168 0.005885706520479402
-0.001777036615957297 -7.37715531513562e-05 0.007600091809961993
0.010489819803703958 -0.013984175660421327 -0.0031895392637550104
0.005113617606295068 0.00025191506634476395 -0.0005786908564132511
0.0014879887526849781 0.001522147739583968 0.0005287858928967307
-0.0012626469786883908 0.00017044454975991759 0.00356332292310508
-0.002126027323762499 0.0006638764310180782 0.0004145407843031051
0.0005456176186648034 -9.536274043266787e-05 0.00044738520350353874
-0.0006218539683092681 0.001118933826644201 0.0014540058750223937
-0.0022127452502486004 0.002802086057575499 -0.007135767539426457
0.0068021890552134485 0.0014934979443565189 0.00480606056522528
-0.03171274303406903 0.007174745134262535 -0.00997030671455596
-0.021661363659958563 -0.004917455277326034 -0.009040996176490648
-0.003480057740125467 -0.0013872095643638308 -0.0010052413323969563
-0.009048727644946313 -0.02988242875739058 0.02948514824834932
-0.01943777472538424 -0.08229705786237286 -0.00874275190515087
-0.026248216492110434 0.016408379855729682 0.011975771440587013
-0.006789291556139405 -0.01831473583373248 -0.005896811233175394
-0.008761234515600465 -0.01114773857818972 -0.010866142129300958
-0.012514690222783256 0.05732512844076053 -0.007323544048628621
-0.0013740552924353282 -0.026944537163460885 0.006838964307153607
-0.025011877128442207 0.04745356170361526 0.014080709839826589
-0.005695564857051013 0.011429158474891489 -0.01889526891248236
-0.0002191148768006569 0.01307542675012069 -0.004550332908258664
0.022855123314158968 0.021767162524053876 -0.012175526802934924
0.0060068620582868085 -0.002123041228051544 -0.01945315564180672
0.007559324064100921 0.020661353043471994 -0.013570094819513972
0.07554035998288447 0.16788462769759357 0.019967057367684317
0.013894589810190082 0.05028671781988591 -0.005736208522249502
0.09526470561715293 -0.0547510597083542 0.004637462366447993
0.037813334270538186 0.03218260140719026 0.005780905012337677
0.003991803300262383 0.0012270044911173697 -0.001630501534562608
-0.005496949359204702 -0.0018269614908737206 0.0058026876308344645
-0.007069241720570478 0.0011164788724894504 0.005867393984253938
0.000454802602671751 0.001498510996305077 0.004835239163871901
0.0025895878176076803 -0.0019200379761332522 0.004806989840115234
-0.0070227647961192356 0.0018254979374686725 0.007258448285669772
-0.00573323138900402 -0.0044657899039392815 0.007723093179572299
-0.0062264719297711185 -0.005742961987369672 0.007946182900757649
0.0010547629207352254 -0.002169231183544377 0.006582758306962398
0.0009870203325779369 -0.0007774488614011247 0.0037638291584891864
-0.0010123918333280744 -0.0011042445583645164 0.004044617468427759
-0.00021979866487146048 -0.0021716793584560102 0.0037158918364536752
-0.010781578752532172 -0.005337345428766243 -0.010965798753292557
-0.007396110246382114 -0.0034278479117979617 -0.00039180112434262945
-0.007106499967407831 0.0007088508726745067 -0.001244241988635675
-0.0077438034399582665 -0.007411204125554074 -0.007622456914751193
-0.008815793940032887 -0.0012218868390745825 -0.011126949675410629
-0.008355072366482821 0.001921867255868317 -0.002155473221992326
-0.000366327433336363 -0.0009975663175893657 -0.00023484605043394305
0.006983457201256513 -0.0015048719798365867 0.004170479560423827
7.404456635680626e-07 0.0007441475811945735 0.0038753884693402763
0.006371074480896204 4.192840361394109e-05 0.004162597001885041
0.006349096721030578 -0.0015504957227448022 0.00700198393762109
0.00037823703306699507 -0.0017156279942751834 0.006286356369825877
-0.0008260405686837943 -0.0021212990485573496 -0.0004494018346711804
-0.006597683244683255 -0.0030233397899236806 -0.008449618050249328
-0.006287044692562177 -0.001205955468458399 0.007449507734307749
-0.008422790894251853 -0.002049699485962512 -0.0013726739645889923
0.004538674667607978 0.0010523291911745975 -0.002512377657608806
0.0018623779751583691 0.0012763106051469776 -0.0005534526314335272
0.0029658935128235157 1.055886024279569e-05 -0.0024425711003778264
0.0031339076768667844 0.0009154725905640989 0.005664097162236886
0.0029755549865562447 0.0005099741041844588 6.348153879841854e-05
0.0013348153522462981 0.0016634104678953526 0.0026621477569803015
0.0013692122812186476 0.0007214948591070001 0.0031872502866816797
-0.009036141890262757 0.0023902674519505423 -0.012758398977250932
0.005764543610113211 -0.00038080925792100597 0.007008158232124674
0.05908640925148562 0.12712854964385745 0.009258692015996235
0.005340465034712244 -0.0023896245552159226 0.004342173899597827
0.002751996765923583 -0.0012740018585370928 0.0054668666148258846
0.004367133096014293 -0.002189564830670227 0.0043132049247685345
0.005644611357962323 0.0008018703077770292 0.00045216275711056135
0.00459953789532437 0.001786510505102887 0.00044062814868943396
0.004129420311966228 -0.0011674508397394937 -0.004714021324863516
-0.012659215900664468 -0.012727210656361076 -0.011777183107366234
-0.005541532329656347 -0.007663318446982635 -0.005182143071635513
0.025131578243273722 -0.016231180699494 0.018687191179060134
0.0011486884316294899 -0.014435896357619042 0.017641148651630734
0.016315471503060005 0.01428513556351834 0.01102289217152123
0.026549188213612875 0.02184917495798158 0.013997073508253674
0.02256261821885409 0.015615474865648609 0.023008030149347408
0.0032953499999951144 0.009321482476709603 0.010618392353497123
0.0007159664680507025 0.010638662909191878 0.011214905617298007
-0.005568358373428226 0.007247966405508442 0.011810775830395729
-0.0068025833947707075 0.003992149103869807 0.014413890160176792
-0.007092055977640827 0.005181378203318919 0.016096145648040107
-0.0044561904852091294 0.004737780917330581 0.0118843294159461
0.011683494975935627 -0.022126629949708855 -0.0009260782501069984
0.010252305387745264 -0.024924481019892693 -0.002471687074502037
0.006260374206843524 0.021584911289010543 0.009512680277878976
0.004406526721616123 0.01978810596997692 0.010710572401779781
-0.0024006883688846995 -0.002170957087561528 -0.009266676290415487
-0.004799607435668259 0.003652573445172613 -0.006607956910162233
-0.003548235284098222 0.0022227686600270018 -0.006879955074099359
-0.003571230572032537 -0.0006428467478714803 -0.00721417473944859
-0.0012429702505835005 -0.0004706139995678806 0.0003829264418073165
0.005021521594608417 0.0008037841290588912 0.003824118915646831
0.0038208832841002036 0.0012480619306468866 0.0016822527232740068
0.0021075355860203787 -0.0013112285405235298 -0.00381549428245452
0.003560767238652725 -0.0008762363981022305 -0.003706900338557745
0.004649428121982664 -0.0007338672628756666 -0.002939607160811866
0.0035021990917305608 0.001337434698174126 -0.009049551088174353
0.0045714598963835775 0.000470311825474592 -0.009691760620844606
0.00463050294117748 -1.5897437946267532e-05 0.0028757233677288584
0.0012572940942973065 -0.0009179758422081296 -0.003515633696302342
-0.006215310457787038 0.0292524346722612 0.012838012920824355
0.011533846175193646 5.96913753978738e-07 0.005503688091866008
-0.006878997124981289 0.02649049250569589 0.011555490179436804
0.0038034161220302956 0.0007660282390659246 -0.0012673934946188104
0.005225964651527246 -0.0009988595608629736 -0.004299445349152158
0.005458824409280602 0.0003244764817230603 -0.001807425904274294
0.006368447408320822 -0.0011623792448376199 -0.004236170352221833
-0.001624065464641214 -0.00023917910830684354 0.006631410392209662
0.0006411056838944064 0.0007859406674524626 0.00725965716502661
0.01786107711059784 1.1559795633024929e-05 -0.006351012766753505
-0.006189565989203203 0.005239374611993679 0.013113066539528253
-0.004540751507908783 -0.0016222710893733679 -0.009596533222967633
-0.0012981317677383157 0.0001708780739202465 -0.008121996839302982
-0.002963902567476413 -0.001951442153070259 -0.00868581979703465
-0.007891791099911654 0.0014093049628780508 0.006328416297536768
-0.005654364400232802 0.004695919136896587 -0.0007642699208670949
-0.0014658346742456065 0.0012373123120739517 -0.008306907139134375
-0.0043267774240364435 -0.001028817431306249 -0.009642704206599285
-0.004066914718829194 0.002569475037361644 -0.0011624832116777888
-0.0026890911172896726 -0.00031265831564479345 -0.009156861720757392
-0.0009912131988589895 -0.0018333648439016231 -0.004695014416818141
-0.0002569104658603291 -0.0036192793048382466 -0.004838592734362847
-0.013241806401914592 -0.02225854345283274 0.0047953284312158085
0.006082361831874376 -0.016275880341700338 -0.010023830622388472
0.014533853797181223 -0.009150642511031117 -0.0062288635685359105
-0.002659487837056396 -0.003211680061141367 -0.005327482812381035
-0.0019557529401901335 -0.0005430223536486366 -0.00037364680153291973
-0.0014554020046266668 -0.0048868454039488335 -0.005348354125819482
-0.006112026394996193 -0.0019821398184819965 0.006693017675879318
0.005507187105681267 0.00024620107901915546 -0.00461140529141062
0.0064933197347294734 -0.0004420287378547463 -0.008671240875558352
0.005861062457633783 -0.0011493084510299533 -0.004860714047262413
0.006063384595946817 -0.0009291168637388964 -0.008324085750647126
0.0007587671003875659 -0.0027900526453778136 -0.00022122288409452153
-0.0019736425510847775 -0.004198884472998034 0.0009982358833303295
-0.006870469960295989 -0.0020900180604610445 -0.0037536669583859887
-0.000728635996334493 0.0017990731000573285 0.004117669844624293
-0.0014438747804542736 0.0011254448812597732 0.0060119961617737154
-0.014061867542607336 0.023074496828587993 -0.00940871332388557
-0.001195559022828246 -0.0007496577153144353 0.006501035896422795
0.015196657041226795 0.05217575105707924 -0.0062397659149574245
0.02425229935404534 -0.02342065504606794 -0.01667674294762763
0.07495545984036231 -0.015890064769117813 0.0017219767427712933
-0.004840703645624696 0.00029141800145781146 -0.007335250077154738
0.0025491716396473423 0.004620234212904583 -0.006907190893610176
0.00199340953122236 0.0038344625496575437 -0.0014281378263234395
0.0043939391206178745 0.0026299530063403896 -0.007441590590534967
-0.006461197397809999 0.004945548670509109 -0.0010876598501181347
-0.004775551720048026 0.00317766642992289 -0.0013360245150956754
-0.01047756332505694 -0.0011335211347817834 -0.013493719997740669
-0.017928464099912327 -0.004251587685330886 -0.01511190954216448
0.0054396249113073825 -0.00015169805203064243 -0.0025619882437206377
0.005594805822620055 -0.0023577392232525967 0.0055428901948416185
0.005103216491071862 -0.001277412940876326 0.004637637535881069
0.006238320046367307 -0.0021250241438986327 0.004700193903752568
-0.00036852304392089475 -0.0012548619419170287 0.008533445381856974
0.006653237270038189 1.7681610409458882e-05 0.0002928194025823733
0.005292420420445901 -9.616269307348932e-06 0.00028177955882319764
-0.010887483139846978 -0.008242311563543717 -0.017645864957204393
-0.01453465079106866 -0.012804084613785606 -0.016209605177655923
0.006467243578037899 -0.0023682848731368194 0.005697881453501076
0.003955581249170002 -0.0016612606536894842 0.005477787603612155
-0.005298948995752581 0.003034409980544135 0.016924265596415355
-0.020034671056601693 -0.018188854612527665 0.01601747369789286
0.007346979252144879 0.01676084077528499 0.02456019279234807
-0.01263814032349989 -0.023835592921940582 0.02288645510289097
0.008062813423192127 -0.02425601171347334 -0.017168482186134676
0.02149073408159784 0.021415375707676477 0.01139355634755301
0.000585067285304286 -0.0016432571552440123 0.012173799869587219
0.00961544903910756 -0.03504994434218771 -0.020175767572735568
0.0022575381263239746 0.00018150747401586304 -0.01279527517071048
0.0016641690740959421 -0.0354745002518561 -0.019991074080166822
-0.004644797581186987 -0.0213427528091061 -0.007531503915351647
0.012092754985760696 -0.001969512178698276 0.004669178443470751
-0.00016715309785786183 -0.0010206602793114625 -0.004655944460952263
-0.002152643735859016 -0.00807936388640737 0.0023263481773306257
0.033514177003862264 -0.0070896370886152265 -0.009748648072260417
0.016112851584111736 0.023191623465333606 0.01038175848550111
-0.006912737671287164 0.003452088326021518 -0.005450753309654852
-0.014300853672871766 -0.020385811758736175 -0.010148550770158138
0.005863585338990625 -0.0001881678484239601 0.003611082242913591
-0.000335796670470589 -0.0018776190388720437 0.009407628339600592
0.017269755018517897 0.020123907908991524 0.00864128548969779
-0.001113636810408939 0.0019434863481011496 0.008157933559159811
0.0009533263660126383 0.0006605475293246624 0.01348805994507433
-0.004625622392590141 0.0026838454571757892 0.013347558081618095
0.006750478573671368 -0.0033809241563930214 -0.00011029475370742279
1.981960627162791e-05 -0.0021574319286342025 0.015051466705119029
0.029191373170622186 -0.02350989406902704 0.01899912573966486
0.029774675631492355 0.01898428397357522 0.015830069442327815
-0.023131043716222342 0.007134528416474088 -0.004952628599735804
-0.015117388859331378 -0.030478717197308394 -0.017980572671267864
0.001807601043772998 -0.002284944127929077 0.0035568607281564555
0.02482595719021246 0.017743736014507964 0.021519468105509518
-0.01437594548245381 -0.0012772665238974853 -0.009468920578774869
-0.010759525145492383 0.0003705397203617062 -0.017650761218096618
0.018848847755420475 -0.034865539602710494 0.007515337610113725
-0.00011352381530667069 0.0017551770798276095 -0.0009248503437372898
0.0005949724034234609 0.0002620075673562815 0.00139282215917822
0.0064476145829355435 -0.0018298989033774544 8.427011041614135e-05
0.006780186960429854 -6.696567566799147e-07 -0.0018476921529639607
-0.01871953624847283 0.020007941280251445 -0.009041231472319125
-0.007319443084181762 -0.0023607508666235993 0.014319985691596003
0.011059932955093043 -0.013696080118014372 -0.0035893898097977524
0.0009225419393846741 -0.0007640630565530585 -0.002898734068908376
-0.0002043135687474664 -0.0004945692028135235 -0.0030232744754329867
0.0007081972098940419 -0.0014242582871768152 -0.0045720192046848395
0.0062767515597112935 6.900697716094471e-05 0.0025779168012777455
-0.002118123694150159 0.0013026825093248105 0.0035240083041797082
0.01765809108444227 -0.04359816884034804 -0.00131975854145406
0.004942040570277262 0.0014120487680530298 -0.004483334152966191
0.004002668251542675 -0.0069669779006207 0.014523828671150369
0.0019520596077335262 -0.005625337896342472 0.014062941756263587
-0.002277446905063696 -0.0018060085933359336 -0.008724631238289478
0.0004840030819643262 0.029034330808987985 0.015433477446884475
-0.014708026427760033 0.0086936388693217 0.01402471762945317
0.0048701337061741465 -0.006160385628970284 0.014939407437883478
-0.00912749796662033 -0.018621242933297588 -0.007065578055735649
-0.0019202972786213637 -0.002537625235074874 -0.00915361321759225
0.008215408416764188 -0.024949364463842993 -0.009961898461968472
0.006552123584203239 -0.005379332857843127 -0.00045535390162567297
0.004375003286478626 0.0026542459415352685 0.012809507224873595
0.007330733588582685 -0.004765854499894577 0.014710517933913614
-0.006394526817480913 -0.00563507689895223 0.013317228312560044
-0.007681456062222673 0.015123517783978949 0.0010474104429635226
0.0074357859506049865 -0.04990642829173019 -0.012256710131206128
0.006478894488840445 -0.04358597237776306 0.00490236264338301