# vtk DataFile Version 2.0
Really cool data
ASCII
DATASET UNSTRUCTURED_GRID
POINTS 584 double
-1.0 0.0 0.0
-0.9600374798207896 -0.027590413451835553 0.04
-0.9589620457797374 -0.028177574718636023 0.0
-0.9553815213922792 0.019675326217199102 0.04
0.6719637381218919 0.02110482676547816 0.0
0.6414775595248179 0.020020515529780993 0.04
0.6571281419012174 0.06 0.0
0.6240641012293764 0.022292119262118645 0.0
0.687851041884645 0.021313940245698455 0.04
0.7030120427199962 0.06 0.04
0.657128141901218 0.06 0.04
0.7030120427199952 0.06 0.0
0.6885310613992013 -0.0196061899732657 0.0
0.6720046167250797 -0.020579604775701428 0.04
0.6407079554435648 -0.019738458112036637 0.0
0.7171469290115033 0.021165332718839136 0.0
-0.7921016077200962 -0.06 0.04
-0.7604373514312079 -0.019298436119384588 0.0
-0.7479973317145423 -0.06 0.04
-0.7479973317145417 -0.06 0.0
0.7030120427199962 -0.06 0.0
0.7030120427199952 -0.06 0.04
0.6571281419012174 -0.06 0.04
0.7479973317145417 -0.06 0.04
0.7325903506195701 -0.020274227246539274 0.0
0.7176321617908783 -0.019839353713154383 0.04
0.7604373514312079 -0.019298436119384588 0.04
-0.8488906624897727 0.019856366527450334 0.04000000000000001
-0.8052789150181434 -0.019306901564895652 0.0
-0.805541091654972 0.020469431563422978 0.04000000000000001
-0.8203038938742353 -0.020636147377884773 0.04
0.897529295217204 0.022569895749215793 0.0
0.8488906624897727 0.019856366527450334 0.0
0.8569454102823642 0.029774901726562965 0.04
0.8777357995360431 0.06 0.0
0.9553815213922792 0.019675326217199102 0.0
0.95349853104827 0.02147987272312249 0.04
0.9103536180674616 -0.021283841161765512 0.0
-0.5450807564691462 -0.01715484187473429 0.04000000000000001
-0.5372746904547943 0.02439300391790418 0.04
-0.49049502097572617 0.000359712426279548 0.04000000000000001
-0.5409244119327052 -0.005150142234760652 0.0
-0.48901428549955095 -0.02776609156780287 0.019771763033692314
-0.4642419910175897 -0.06 0.04
-0.43891524330526177 8.673617379884035e-17 0.04000000000000001
0.7479973317145423 -0.06 0.0
0.9600486361512215 0.06 0.04
1.0 0.06 0.04
1.0 0.06 0.0
0.9192992165657531 0.06 0.0
0.7479973317145423 0.06 0.04
0.7309057796957548 0.02177174945441851 0.039999999999999994
0.7479973317145417 0.06 0.0
0.7613659684934695 0.020945326906433456 0.0
0.7736855084518748 0.020914979208800512 0.04
-0.8570647961856006 -0.015388027432140593 0.0
-0.8569454102823642 0.029774901726562965 0.0
-0.8649535140731797 -0.02016838668923704 0.039999999999999994
-0.1726925416005594 -1.214306433183765e-16 0.039999999999999994
-0.22806385632140147 1.0755285551056204e-16 0.039999999999999994
-0.2006519843784229 0.06 0.0
-0.22806385632140147 -1.1796119636642288e-16 0.0
0.438611990705585 -5.252150912499892e-05 0.04
0.41358849559293387 -0.06 0.04
0.4135884955929341 -0.06 0.0
0.4642419910175897 -0.06 0.0
0.4782715374234063 0.0302584611690398 0.019894876072988572
0.513903464641242 0.06 0.0
0.49049502097572617 0.000359712426279548 0.0
0.46424199101758934 0.06 0.0
0.46424199101758934 -0.06 0.04
-0.8164681441220105 0.022269284396602723 0.0
0.48912437490067595 -0.00041996788971368666 0.04
0.4642419910175897 0.06 0.04
-0.8353421249080566 0.06 0.04
0.8649535140731797 -0.02016838668923704 0.0
0.8973163514988121 0.02144006532192878 0.04
0.5625923446839085 0.06 0.04
0.6103276788742331 0.06 0.0
0.5943416245309461 0.018901239582525348 0.04
0.5790918012159274 0.021628695864523574 0.0
-0.593631917725493 -0.01946781888421301 0.04
-0.6103276788742336 -0.06 0.04
-0.6407079554435648 -0.019738458112036637 0.039999999999999994
-0.6264545933043166 -0.021459100211208025 0.0
-0.6103276788742331 -0.06 0.0
-0.6103276788742336 0.06 0.0
-0.6240641012293764 0.022292119262118645 0.04
-0.6414775595248179 0.020020515529780993 0.0
-0.5943416245309461 0.018901239582525348 0.0
-0.5790918012159274 0.021628695864523574 0.04000000000000001
-0.5625923446839077 0.06 0.04
-0.6103276788742331 0.06 0.04
-0.5625923446839085 0.06 0.0
-0.7325903506195701 -0.020274227246539274 0.039999999999999994
-0.7176321617908783 -0.019839353713154383 0.0
-0.7309057796957548 0.02177174945441851 0.0
-0.7736855084518748 0.020914979208800512 0.0
-0.7613659684934695 0.020945326906433456 0.04
-0.6571281419012174 0.06 0.04
-0.6719637381218919 0.02110482676547816 0.039999999999999994
-0.7030120427199952 0.06 0.04
-0.687851041884645 0.021313940245698455 0.0
-0.029521960903255984 -0.06 0.04
-0.05860957814939871 -6.938893903907228e-17 0.039999999999999994
-0.05860957814939863 5.898059818321144e-17 0.0
-0.08769719539554167 -0.06 0.0
-0.08769719539554144 -0.06 0.04
-0.2823507532564078 -5.204170427930421e-17 0.04
-0.25547572826437986 0.06 0.04
-0.25547572826438003 0.06 0.0
0.38751191920162714 6.938893903907228e-18 0.0
0.3352618020299945 -3.469446951953614e-18 0.0
0.36192316205531716 0.06 0.04
0.3619231620553172 0.06 0.0
-0.36192316205531716 0.06 0.0
-0.335244821032008 -1.1796296425746478e-06 0.0
-0.3352618020299945 -3.469446951953614e-18 0.039999999999999994
-0.38745316199969926 -7.894682722445895e-06 0.0
-0.3619231620553172 0.06 0.04
-0.3092257782484355 0.06 0.04
0.28235075325640757 5.551115123125783e-17 0.039999999999999994
0.30922577824843556 -0.06 0.0
0.335244821032008 -1.1796296425746478e-06 0.04
0.3092257782484355 -0.06 0.04
0.36192316205531716 -0.06 0.0
0.38745316199969926 -7.894682722445895e-06 0.04
0.3092257782484355 0.06 0.0
-0.38751191920162714 6.938893903907228e-18 0.04
-0.28235075325640757 5.551115123125783e-17 0.0
-0.30922577824843556 0.06 0.0
0.6103276788742336 -0.06 0.0
0.593631917725493 -0.01946781888421301 0.0
0.6264545933043166 -0.021459100211208025 0.04
0.4889627886584896 -0.027603176797077415 0.020155725176282127
0.583287522480325 -0.023728770665855194 0.039999999999999994
0.5450807564691462 -0.01715484187473429 0.0
0.5409244119327052 -0.005150142234760652 0.04
-0.48912437490067595 -0.00041996788971368666 0.0
0.3619231620553172 -0.06 0.04
-0.657128141901218 0.06 0.0
0.9600374798207896 -0.027590413451835553 0.0
1.0 0.0 0.04
0.9589620457797374 -0.028177574718636023 0.04
0.5625923446839077 -0.06 0.04
0.5625923446839085 -0.06 0.0
0.7766984080639845 -0.02052537972713625 0.0
-0.438611990705585 -5.252150912499892e-05 0.0
-0.583287522480325 -0.023728770665855194 0.0
-0.9600486361512215 0.06 0.0
-0.95349853104827 0.02147987272312249 0.0
-0.9192992165657539 0.06 0.0
-0.9192992165657531 0.06 0.04
-1.0 0.06 0.0
-0.14473309882269625 -0.06 0.04
-0.14473309882269605 -0.06 0.0
-0.11621514710911887 -1.214306433183765e-16 0.0
-0.17269254160055947 1.1796119636642288e-16 0.0
-0.14473309882269625 0.06 0.0
-0.11621514710911884 1.214306433183765e-16 0.039999999999999994
-0.8353421249080566 -0.06 0.0
-0.8353421249080575 -0.06 0.04
-0.8973163514988121 0.02144006532192878 0.0
-0.897529295217204 0.022569895749215793 0.04
0.11621514710911887 -1.214306433183765e-16 0.039999999999999994
0.05860957814939871 -6.938893903907228e-17 0.0
0.05860957814939863 5.898059818321144e-17 0.039999999999999994
0.08769719539554144 0.06 0.04
0.6103276788742336 0.06 0.04
0.5139034646412424 -0.06 0.0
0.9096368506350345 -0.020963842829632554 0.04
0.805541091654972 0.020469431563422978 0.0
0.8052789150181434 -0.019306901564895652 0.04
0.8203038938742353 -0.020636147377884773 0.0
0.08769719539554144 -0.06 0.0
0.08769719539554167 -0.06 0.04
0.9192992165657531 -0.06 0.04
0.8164681441220105 0.022269284396602723 0.039999999999999994
-0.9103536180674616 -0.021283841161765512 0.04000000000000001
-0.8777357995360431 -0.06 0.0
-0.9096368506350345 -0.020963842829632554 0.0
0.8570647961856006 -0.015388027432140593 0.04
0.7921016077200956 -0.06 0.04
0.8353421249080566 -0.06 0.04
0.7921016077200962 -0.06 0.0
0.4135884955929341 0.06 0.04
0.43891524330526177 8.673617379884035e-17 0.0
-0.7921016077200956 -0.06 0.0
-0.08769719539554144 0.06 0.0
0.14473309882269605 0.06 0.0
0.1726925416005594 -1.214306433183765e-16 0.0
0.11621514710911884 1.214306433183765e-16 0.0
-0.029521960903255984 0.06 0.0
0.0 0.0 0.0
0.17269254160055947 1.1796119636642288e-16 0.04
0.14473309882269625 0.06 0.04
0.0 0.0 0.04
0.2006519843784229 0.06 0.04
0.22806385632140147 -1.1796119636642288e-16 0.04
0.22806385632140147 1.0755285551056204e-16 0.0
-0.6720046167250797 -0.020579604775701428 0.0
-0.7030120427199962 -0.06 0.04
-0.7030120427199952 -0.06 0.0
0.25547572826438003 0.06 0.04
0.30922577824843556 0.06 0.04
0.25547572826437986 0.06 0.0
-0.02952196090325599 0.06 0.04
0.2006519843784232 -0.06 0.04
0.14473309882269605 -0.06 0.04
0.2006519843784229 -0.06 0.0
0.14473309882269625 -0.06 0.0
0.2823507532564078 -5.204170427930421e-17 0.0
-0.36192316205531716 -0.06 0.04
-0.41358849559293387 -0.06 0.0
0.5372746904547943 0.02439300391790418 0.0
0.5139034646412424 0.06 0.04
-0.5139034646412424 -0.06 0.04
0.41358849559293387 0.06 0.0
-0.7171469290115033 0.021165332718839136 0.04
-0.7479973317145417 0.06 0.04
-0.7030120427199962 0.06 0.0
0.08769719539554167 0.06 0.0
0.029521960903255984 -0.06 0.0
-0.02952196090325599 -0.06 0.0
0.02952196090325599 -0.06 0.04
0.02952196090325599 0.06 0.0
0.029521960903255984 0.06 0.04
-0.47805793986482265 0.03008719549728311 0.01940109733029794
-0.4642419910175897 0.06 0.0
0.6103276788742331 -0.06 0.04
1.0 -0.06 0.04
0.9600486361512205 -0.06 0.04
0.9600486361512215 -0.06 0.0
-0.3092257782484355 -0.06 0.0
0.877735799536044 -0.06 0.0
0.8777357995360431 -0.06 0.04
-0.41358849559293387 0.06 0.04
-0.4135884955929341 0.06 0.0
1.0 -0.06 0.0
1.0 0.0 0.0
-0.14473309882269605 0.06 0.04
-1.0 -0.06 0.0
-0.9600486361512215 -0.06 0.04
-1.0 -0.06 0.04
-0.7921016077200962 0.06 0.0
-0.9192992165657531 -0.06 0.0
-0.9600486361512205 -0.06 0.0
-0.7921016077200956 0.06 0.04
-0.7766984080639845 -0.02052537972713625 0.04
-0.5625923446839085 -0.06 0.04
-0.5625923446839077 -0.06 0.0
-0.877735799536044 -0.06 0.04
0.7921016077200962 0.06 0.04
-0.3619231620553172 -0.06 0.0
-0.7479973317145423 0.06 0.0
-0.8777357995360431 0.06 0.04
-0.4135884955929341 -0.06 0.04
-0.46424199101758934 -0.06 0.0
0.513903464641242 -0.06 0.04
-1.0 0.0 0.04
-0.877735799536044 0.06 0.0
-0.30922577824843556 -0.06 0.04
[...]
POINT_DATA 584
VECTORS displacement double
0.0028804974369472016 0.02553470062536127 -0.016351701267964674
0.016027852083264443 0.021473218883580822 -0.027187895374565105
0.0134994916200564 0.026460738186014198 -0.024273796928850254
0.026089968850929506 0.01759594318157422 -0.01340642056783642
-0.0008045012904434662 0.006600391432736629 0.0038207353554617018
0.000618101339710446 0.0004049854726143127 0.015916164602612422
-0.009694246922958226 0.0047698610007701715 0.011715166823903703
-0.0013813983960189126 0.00815544581541936 0.021851759772620574
0.002488778901663779 0.008826494421843058 -0.0033544052859989146
-0.0028570219673154803 0.0017319613641926942 -0.01705076900716853
-0.008642474750008672 0.004314326212362259 0.010092153423983792
-0.005672408470920507 -0.006804346481355032 -0.014574068265729382
-0.0016408608797596914 -0.001546580603348804 0.0038711766353108504
0.0017558935932423167 0.010533735848013075 0.005559447509053983
-0.0017451326251487547 0.008271065165321506 0.010831706758770005
3.3868548413830124e-05 -0.015772163344943628 -0.012879836509037457
-0.042226415762227035 -0.037544777899039324 0.019766775395762975
0.011457265457785283 -0.04571432564430405 0.018668589538274064
-0.019882338190039085 0.011388700882404868 0.036759884137695195
-0.032589386572873816 -0.015245212709833972 0.03808382417568547
-0.0009993858907668598 -0.012798235879682283 0.007593550330905329
0.0018855928602284054 -0.007178106153656073 0.006237265121225067
0.004602585082139981 0.01010458984755114 0.0073843105501973545
0.00721967789112309 -0.007954913552689794 0.004763532223708292
-0.002375985340049397 -0.024470093514613038 -0.0067602321563459125
-0.0007917314853073089 -0.011265243267745964 -0.0041295479836756036
-0.0006426376545538409 -0.013083023166039152 -0.01098902668598032
0.026577367381321517 0.04617040211212555 0.008566918810825209
0.01844870688722048 -0.020263337027013606 0.011402422787295525
0.02573888644917491 -0.029094149089705337 0.0155863049441024
0.020733465567249545 0.012127275504324048 0.017731905183591336
0.013937992583393576 0.00033437324021816156 -0.004640264922447492
0.010587909542289387 -0.010389464781863655 -0.021889453207864798
0.005379291871453 0.004174696215616026 -0.01949917749123841
0.012600242795806151 -0.007058748294852627 -0.018805019833438998
0.013457771508840583 0.020814588008454222 0.019172442775167525
0.005498799995090047 0.010615640017336633 0.01977326337415632
0.009596166740152335 0.005914513250836908 -0.0056682808566450365
0.021972908024170148 0.048588714502605254 -0.01134813429915466
0.02812310977655372 0.04805195244446971 -0.0015648336681116104
0.009272632161624092 -0.03077112278841347 0.009634758479069703
0.025510378783805392 0.05213552195399131 -0.012479933886660141
-0.010839552445103571 -0.014511594747954597 -0.0008246163650893432
0.00847635465293244 0.06065623843999607 -0.0014340280356931725
0.028823745170972657 0.0257199688805731 0.015342198379317275
0.004122148811493668 -0.023627260904907327 0.005133163500836618
0.009130351295907953 0.004047325749955135 0.03215811184329005
0.010372238872499892 -0.0027956133663266745 0.04650431297064908
0.01854769434725873 0.011860650626371401 0.04702730215273044
0.012142784976906055 0.009033995844599662 0.010319967279763888
-0.00340932171707547 -0.014495685731142825 -0.0361050261988227
0.0012220393106326206 -0.008908958252776464 -0.018831038305596688
-0.0036467442668051157 -0.028875440965467777 -0.03584969293203826
0.002917675415710432 -0.028926073494665396 -0.025052423664138564
0.0024433366687651886 -0.011228558723900156 -0.027736356968999572
0.022114383368703406 0.05075552610420455 -0.001942762360380643
0.019405772427760044 0.037761617041713665 0.0012076183834550034
0.026133582760954458 0.03869274231404834 0.00195407024079758
0.0042957068672631665 -0.019656888185497462 -0.02150413307598574
0.011104808083560035 -0.008357543697866576 -0.015747129704540917
-0.007262799903182211 -0.02748572947326679 -0.04027988027636496
0.011861365752812348 -0.023292311813559143 -0.01654519204060028
0.004570946894097316 -0.001552647945192827 -0.0015743668680223526
-0.004924634397774651 0.012796254649245598 -0.001902533860584917
-0.003098218122218154 0.007473237747017633 -0.004581004888948669
-0.0013197174044792966 -0.007781508197853871 0.0013324129152222542
-0.0006117330852846058 0.010663083687416228 0.016253422337642393
-0.0028848464650279536 0.019031463973743976 0.03750720912734628
0.0029229610168044038 0.016342251824372673 0.014181213390580344
0.00042577656447158595 0.01080364192869732 0.013861554509863924
-0.0003865798580280176 -0.019334370825283772 -0.004892378256783616
0.022873860199006543 0.0008283532822890738 0.01735310303783445
0.0005165234581785774 0.007540706696246788 0.012763956149877262
-0.007755343205025086 0.007041667777939909 0.014825878719173437
-0.01585720652477811 0.03155786467569984 0.00995661832920171
0.005942911898073573 -0.003672703931941714 -0.0132628909054674
0.003991574975629184 -0.002742055360762531 -0.00493469609772084
-0.00556793631625287 0.012537201785360351 0.044121150304437695
-0.007104825065359693 0.012757848152324038 0.0366300698712139
0.0003102035682929475 0.0022952487071249525 0.027592426706839392
0.002034092140241193 0.020137325942217486 0.03118190934111301
0.005660970558178841 -0.027866419704592797 -0.00782385168628608
-0.02797679224365193 -0.028273127228738645 -0.018025612830815385
0.029151576791798944 -0.02956084466587179 0.005148741663494735
0.01787951592512547 -0.03185211944560303 -0.004776599222287928
-0.021456223488238443 -0.023311976882433964 -0.021685305322240153
-0.009700227357190342 -0.01229552041323588 -0.03509896026010263
0.024943330227308876 0.02061475506491511 -0.0085383050866666
0.027263575427553137 -0.04905152758315471 -0.018455592383711267
0.012447424516051665 -0.013994837479149074 -0.010175270837216433
0.016408584097359492 -0.009759402767001244 -0.004630064209335104
-0.02197229009379668 -0.03053104977479266 -0.00031940705766875184
-0.01960537368907655 -0.0033409219424377005 -0.02407477397220617
-0.0006191871064698587 -0.013992779287875283 -0.01423672932418878
0.011048707925628716 0.023456594538911902 0.02727929299233001
0.008352557187291158 0.0027643010775249286 0.020153095299390623
-0.0007814171690201808 -0.008584978735403388 0.009618599171731615
0.011841800645199057 -0.04049290271307079 0.027782550885656565
0.0011110705782656491 -0.03861131810357355 0.020311312123543184
-0.06384915849277813 -0.127022021635288 -0.03501350688798614
0.004179523264469645 -0.053135599009186504 -0.005316560764784629
-0.07492805463979181 0.07833355790659322 -0.021189781388608383
-0.01592389545616601 -0.027498196932933833 -0.005526694631744749
-0.006001394791604194 0.006069542909551917 -0.006393027907720537
0.005264599050582389 -0.005801890328982139 -0.0006720735127474684
0.01032958864146757 4.3593572135790344e-05 -0.0010685496328370983
-0.004101204977346002 -0.0027002335740479106 -0.014464685024801997
-0.0063334596218488646 -0.0047991047782054265 -0.01023291502433428
0.005199879877928476 0.003480457571003486 -0.003276306981623039
-0.009647050070439046 -0.01108067784835308 -0.02760087992448656
-0.00971797328397153 -0.022847538169225006 -0.029060412914805857
0.0003776602602019996 -0.005622170232638673 -0.013644460156372688
0.002496965173916655 -0.020987660086486306 -0.022320185690129515
-0.007407289023222578 -0.0017290435475779044 -0.03196610582291304
-0.004601619451995006 -0.010170816473036604 -0.030775497162485566
-0.007259844620377709 -0.01927984694628019 0.01567186254349572
0.01410973798011037 -0.00916320216943529 0.009979692283306201
0.01617676355422334 -0.007830540872244947 0.011293934451405148
0.0052563464509413505 0.01619341028310354 0.014898043704259466
-0.007187969411517511 -0.030304360853226922 0.021103427498538704
-0.010515022785898474 0.010778707969169892 -0.004363228646211097
-0.0001725552476754626 -0.006096817233016112 -0.02064790110159003
-0.004206847929361723 -0.017152008767428346 -0.004168009269381185
0.0020759062455415053 -0.009081424240376067 -0.021372103879233648
-0.0049706534600603815 -0.002750504935650125 -0.003012807301334112
-0.0018312171077474201 -0.02115678332382956 -0.005030766545575354
-0.0016822967108777534 0.001917537105932456 -0.013481185955584674
-0.005396185165613256 -0.02337540270795169 -0.040484987785694725
0.0023830640877425696 0.012621966639381645 0.014734677565530119
0.0037711721793482235 -0.006548057115826084 -0.00394219806744769
-0.011279734397661202 0.002564232701501453 -0.007542104069456396
-0.0011822855680084987 0.009282618011874796 0.006609830481806348
1.999260065354532e-05 0.011862756707579131 0.01752956775902143
-0.00030607111498201316 -0.001089993651093876 0.013395703684178651
-0.00617889732497532 0.010883823206355038 0.00843198592286815
-1.5547398479722545e-05 0.0003686845323807555 0.0153138285898949
0.004224351526264893 0.027102182888985898 0.018326661222515323
0.003390762336051855 0.013278577979163418 0.02297813995798891
0.010885459406359687 -0.0186378252588723 0.004911627256588863
-0.003796559961532764 -0.013880851122340837 -0.005976525019619328
-0.05287896225380597 -0.11516346956208211 -0.02696884150596019
0.01645726313221001 0.023700322180187982 0.0064425598798611245
0.006765917696307667 -0.0024518131577289264 0.028608878494286234
0.005999216324233934 0.012991745246681402 0.006683077590925612
-0.0038020064787730678 0.0034833286962596974 0.003402793867401557
-0.002426422159713803 0.018010906539308844 0.005256188879997849
0.0003834666150217685 -0.027682111151074818 -0.012422802992246622
0.02868803146866179 0.03801506939542501 0.014570329760668112
0.0072947353358481975 0.005971411666754012 -0.01931711798633441
-0.04853892744707633 0.03467228904533074 -0.01047816115902483
0.021441515468226282 0.01859849016891058 -0.015663223274835575
-0.03477260082928438 -0.026858320168361635 0.001035461414256508
-0.05955796023710552 -0.04542728605125818 -0.012552609768834643
-0.033472321758630956 -0.04364658244533333 -0.014500270515582924
-0.00025091569222686225 0.020786761353832617 -0.007778761269777926
-0.0019034277684367152 0.009487745238758893 -0.008744805702735291
0.015182308279322163 0.004966086021405915 -0.017577904511592343
0.005195858952421566 -0.029725141169856827 -0.021931704946822634
-0.008703563224606357 -0.02167888975725259 -0.03273118821453116
0.0125032607573911 0.008197570381021695 -0.013803264688386888
-0.04983368644127277 0.04922799826379727 0.004692150372175233
-0.05061470309202399 0.05304190327855203 0.005114087804794997
0.016761229736258317 -0.024036631171044518 -0.008004640963874094
0.02361550418695726 -0.031046429411742377 -0.008593480204486113
0.004619627211900452 -0.0013451094526340756 0.01895676494024872
0.0061702950625134164 0.02628097651861793 0.023355632091152212
0.004988463948512339 0.011712365069531204 0.023020032763120347
-0.007422583578049882 0.006435816355044508 0.03946940517353931
-0.00675971166613949 0.001368268447386536 0.03502171281297197
-0.001925965320040451 0.03297626644485478 0.005576861455485937
0.0034053740326783683 -0.002668474720668524 -0.003463059196893009
0.004018269900673262 -0.02103528148301231 -0.02757976923039434
0.00012487620915777685 -0.005387503186446681 -0.01623373371714992
0.0026089057430604213 -0.014597354047750692 -0.015210905439557427
-0.006313109191813301 0.020072648280566437 0.005884043241138493
-0.008366962150263628 0.0076001380955502485 0.004313509282695525
0.019804390037683084 0.012365720378160616 -0.010787355123487
0.0018865832861629129 -0.005216099466852409 -0.028153001542012727
0.02187065249996881 -0.04339013267425796 -0.017893343997821668
-0.048420585917039675 0.032219002827638094 -0.012158988764227888
0.017851579804218583 -0.030823814486487574 -0.017245867064693575
0.0011634456920464127 -0.0024438705217475487 -0.014030575877389378
0.011894054337022175 -0.008874844897026734 -0.0003042045969007107
0.011420376931740974 -0.0021565493343593963 -0.008457160068152364
0.009393351527452538 -0.022701671808716427 -9.777908442361629e-05
-0.004184740298790451 -0.008818763538202332 -0.011736776369702695
0.005980391959233766 -0.0005678090703306577 -0.0010240505726522955
-0.047218489334910345 -0.04009056634209721 0.0165725745920873
-0.00047547393667425863 0.006000945724774123 -0.009835984953824907
-0.01380265345506702 0.008849707801489285 0.02152497385254681
6.96669263151716e-05 0.00720277597107772 0.005032769476869272
0.0032077003705502454 0.008280487986537736 0.017738867357067423
-0.0035800606419048183 0.0034087755005172676 0.018612958064989825
0.011352128350240102 0.01847671582322759 0.013840081451586638
0.0033112403650727945 0.004466622849409425 0.004751123871579587
-0.011984050428860494 0.003542592705907385 0.02162999932773977
0.0073759180854392516 0.006346762189987152 0.01633255088738985
-0.005189868233736879 -0.0017530679271785074 -0.010094159918379158
0.0025753592150439364 -0.00807373840817506 -0.010911146385376064
0.0007984853326292719 -0.016037744963644837 -0.011909104403318828
0.00833206194627731 0.002367375948208061 0.0004491846320439223
-0.031592413641027495 0.014740469432741399 0.034143480493748185
-0.04515836733994886 0.005764594671257166 0.026102683025493557
-0.007541563408278671 -0.005848887069495775 -0.03220400806077315
-0.007360264645830858 -0.008946810432511085 -0.042127802939559506
-0.007995401847729247 -0.017805757767981337 -0.034538540796365466
-0.007859046602252418 -0.0070302672304682476 0.020284711617153343
-0.007203241619704364 0.0009874261786503571 0.0034737048272986924
-0.0026160057513772528 0.0013214297705241393 0.003055094777250845
-0.00882749115427369 -0.002599587320681879 -0.0010394006649686327
-0.004408089090191208 0.0069660663007112735 0.004053797655265985
6.925901850039884e-05 -0.019099204368720216 -0.020816968756125938
-0.005478344994623603 0.020254814613536152 0.010495499334968418
0.005223027457073815 -0.008206618822522693 0.004185596300683352
0.003954094334329207 0.02351756146585278 0.02974157956066075
-0.0065834693955346005 0.0019537121365667126 0.03729546369188166
-0.023678696971522976 -0.0522990542049022 -0.030895743296002594
0.000754225371181189 -0.010666028196752246 -0.011546700996874416
0.004865435595280667 -0.003005590417197475 0.007256130220979057
-0.04383955440301597 -0.00418489724532509 0.012972484028347666
-0.061717630291965406 0.026216268597182495 -0.018616131240431728
-0.008190485748407035 0.018453649713496403 0.038012805189324136
-0.0017598425681399745 0.023028928567399076 -0.0003429125111103948
-0.0007671265506878666 0.014995534488219282 -0.007793797955652428
-0.006099173360068649 0.009818099962514199 0.000598694383488936
-0.005596677993547132 0.02549234766593471 0.03721483393449366
-0.008073366360779525 0.014139964332671366 0.04025294667509307
0.003609427531697823 -0.031081728807283122 0.01948629202732653
-0.0037787765463738253 -0.016110276163576746 0.0301957457675804
-0.00048538296635597676 -0.0017479023342149653 0.004819771816631989
0.011137364297298764 0.004875035813339884 0.01163615399437176
0.015613101564107784 0.005355229230136469 -0.0051554143092302105
0.022976411834737052 0.021596570847248416 -0.0037819898213960882
-0.0033819901436561556 -0.02380872450585571 0.013221796259231802
0.0159722089596543 0.0014598362097698265 -0.008349369949752468
0.013133643993988545 0.004412803098717224 -0.007802318497251155
-0.002420548241332835 0.05553613423693341 0.032511869861949295
-0.0015429441706338687 0.06164130303927818 0.02757776016962864
0.0196661988351284 0.01788898004365355 0.006962253881947839
0.012660005354376011 0.01169369025239128 0.024813376143192508
-0.010920807311428454 -0.012936464098727842 -0.0339222896887567
0.002572577468244981 0.08276029096132635 -0.019365715526172944
-0.049019911122580626 -0.06231316020801091 -0.04942459498988216
-0.01232175802303059 0.0993499332186792 -0.032700967299080994
-0.028718072557702357 -0.00898862902870922 0.030178883687956133
-0.07276602330671726 -0.017237620441035106 -0.024189200399130115
-0.035486971442164464 -0.005179852062655677 -0.01978281894147118
-0.03196439714988328 0.010157257078040318 0.025895016196156393
0.013325623012663402 -0.07275948089325554 0.028844985166513976
-0.00819610203727793 0.07615967165000527 -0.014139578714097439
0.002984122413704935 0.06491443306869069 -0.0194528860108341
-0.04916093539391353 0.02850108854263459 -0.008342542632697613
-0.005724744051046646 -0.0032651297435655605 -0.04360207755709343
-0.0044455274692290474 0.020336733802468823 0.009445922586609598
-0.05389886854957072 -0.016223864508699632 0.01045610750679978
-0.04320947864664943 -0.004328859233095563 -0.006269278335774135
-0.0028171378902223996 -0.025375694859517038 -0.004561508559931059
0.012870920408752953 0.05984383630006849 -0.006234834519332769
-0.0013287984150308105 0.02578529779261555 0.005502890809995916
0.02387254336371684 0.003399482371872726 0.01907501291348192
-0.04061268528071165 0.003863838196961167 6.282964720680608e-05
-0.0015002330477531635 -0.019637157880779323 0.009900120659856997
-0.004548081189762565 0.01843030462145889 0.00798840961093063
-0.00343880349537266 0.009296296265045691 -0.010491802021225342
-0.0051469851334016445 -0.02117410019772753 -0.0007256552393909928
-0.008553546661626138 0.003091506802780574 0.00665657853808166
-0.05067580270805922 0.07046663668801632 -0.020133616669009965
-0.09216553803630985 -0.0138152229788014 -0.03285908848816554
0.024216846435887448 0.047008057544151986 0.011833768096013561
0.010483326986839557 0.034538253345764075 0.022000078808715157
0.016296591859164437 0.017119212010484015 0.032079374788438475
-0.021345764408103738 -0.05660937265546423 -0.014118939869098034
0.008431330163845263 0.04944822063342993 0.008774988246603535
-0.01148235517929846 -0.05204621065176978 0.04062376368293495
-0.04801209070997436 0.012397501560524804 -0.0010715583509355016
0.008956844280058955 -0.006317343827687422 -0.01472704947780208
0.006234724622847743 0.00456476239898061 0.009920781665128199
-0.005290608536679819 -0.010809964410869868 -0.0017596105947843312
0.011945845025417352 -0.010638042534737754 -0.006396614642274278
-0.009865927864141847 -0.01754465362663757 -0.01653468315590779
-0.0069779890082742844 -0.012656496685547646 -0.041198581328733525
-0.018467648145716865 0.031830087713408076 0.012019200952878745
0.0027287008064321664 -0.02424063549601126 -0.038702903970667384
-0.0028732830019338284 -0.01732367034448176 -0.034447657087317604
-0.0031875751912380417 -0.02066530316888579 -0.043690715164481427
0.021224747512136023 0.013857955908422778 -0.00729965542253587
-0.004125823679081087 0.02430652509156223 0.04264567722701769
-0.04417713450094447 0.029677194165040315 0.012479942215152537
0.002524071536399064 0.008012754346090717 0.011123362596252325
-0.005641083918963343 -0.03502199186416795 -0.0023002690500177453
-0.010206772975293373 -0.04484803525793853 -0.004477370479832721
-0.010082977934443077 -0.004015808727182655 -0.005011004994638791
-0.023906814822551307 -0.06333769418661059 -0.025957941171323107
0.04014964222652747 -0.06254507331917084 -0.01060369003803114
-0.0251204482510074 -0.047011468243787824 -0.026068168756910516
0.007801951274793007 0.014656845736926594 0.01833639867379526
0.003523240247385056 -0.012829997503523809 0.017516272201341165
0.011079153002040647 -0.016942020468504012 0.01768250707479969
0.011799076623379229 0.04978773000068703 0.008061460747593292
-0.008777521280727913 0.028388044290178455 0.007900239400686355
-0.007805946955832201 -0.019873892693258254 0.0054524001453077975
0.014396816443571794 0.012295360223198031 -0.013605151015065675
0.023297761417747385 -0.030751340399181475 -0.011794927812347563
-0.011186668898197784 -0.008331246174461744 -0.003328215597607908
0.01977810640588829 0.027275819098452673 -0.01727276091602613
0.024990102492617475 0.048547719501051696 -0.020092227403708935
0.038283442162474646 0.07817086522810435 -0.009726748276988462
0.07939906658279153 -0.03387759131140424 -0.022150142644525007
-0.01815591955204048 0.01743758515173913 -0.016701446697775454
0.0038389329124520755 0.03597373725763341 0.002102523281457551