# vtk DataFile Version 2.0
Really cool data
ASCII
DATASET UNSTRUCTURED_GRID
POINTS 584 double
-1.0 0.0 0.0
-0.9600374798207896 -0.027590413451835553 0.04
-0.9589620457797374 -0.028177574718636023 0.0
-0.9553815213922792 0.019675326217199102 0.04
0.6719637381218919 0.02110482676547816 0.0
0.6414775595248179 0.020020515529780993 0.04
0.6571281419012174 0.06 0.0
0.6240641012293764 0.022292119262118645 0.0
0.687851041884645 0.021313940245698455 0.04
0.7030120427199962 0.06 0.04
0.657128141901218 0.06 0.04
0.7030120427199952 0.06 0.0
0.6885310613992013 -0.0196061899732657 0.0
0.6720046167250797 -0.020579604775701428 0.04
0.6407079554435648 -0.019738458112036637 0.0
0.7171469290115033 0.021165332718839136 0.0
-0.7921016077200962 -0.06 0.04
-0.7604373514312079 -0.019298436119384588 0.0
-0.7479973317145423 -0.06 0.04
-0.7479973317145417 -0.06 0.0
0.7030120427199962 -0.06 0.0
0.7030120427199952 -0.06 0.04
0.6571281419012174 -0.06 0.04
0.7479973317145417 -0.06 0.04
0.7325903506195701 -0.020274227246539274 0.0
0.7176321617908783 -0.019839353713154383 0.04
0.7604373514312079 -0.019298436119384588 0.04
-0.8488906624897727 0.019856366527450334 0.04000000000000001
-0.8052789150181434 -0.019306901564895652 0.0
-0.805541091654972 0.020469431563422978 0.04000000000000001
-0.8203038938742353 -0.020636147377884773 0.04
0.897529295217204 0.022569895749215793 0.0
0.8488906624897727 0.019856366527450334 0.0
0.8569454102823642 0.029774901726562965 0.04
0.8777357995360431 0.06 0.0
0.9553815213922792 0.019675326217199102 0.0
0.95349853104827 0.02147987272312249 0.04
0.9103536180674616 -0.021283841161765512 0.0
-0.5450807564691462 -0.01715484187473429 0.04000000000000001
-0.5372746904547943 0.02439300391790418 0.04
-0.49049502097572617 0.000359712426279548 0.04000000000000001
-0.5409244119327052 -0.005150142234760652 0.0
-0.48901428549955095 -0.02776609156780287 0.019771763033692314
-0.4642419910175897 -0.06 0.04
-0.43891524330526177 8.673617379884035e-17 0.04000000000000001
0.7479973317145423 -0.06 0.0
0.9600486361512215 0.06 0.04
1.0 0.06 0.04
1.0 0.06 0.0
0.9192992165657531 0.06 0.0
0.7479973317145423 0.06 0.04
0.7309057796957548 0.02177174945441851 0.039999999999999994
0.7479973317145417 0.06 0.0
0.7613659684934695 0.020945326906433456 0.0
0.7736855084518748 0.020914979208800512 0.04
-0.8570647961856006 -0.015388027432140593 0.0
-0.8569454102823642 0.029774901726562965 0.0
-0.8649535140731797 -0.02016838668923704 0.039999999999999994
-0.1726925416005594 -1.214306433183765e-16 0.039999999999999994
-0.22806385632140147 1.0755285551056204e-16 0.039999999999999994
-0.2006519843784229 0.06 0.0
-0.22806385632140147 -1.1796119636642288e-16 0.0
0.438611990705585 -5.252150912499892e-05 0.04
0.41358849559293387 -0.06 0.04
0.4135884955929341 -0.06 0.0
0.4642419910175897 -0.06 0.0
0.4782715374234063 0.0302584611690398 0.019894876072988572
0.513903464641242 0.06 0.0
0.49049502097572617 0.000359712426279548 0.0
0.46424199101758934 0.06 0.0
0.46424199101758934 -0.06 0.04
-0.8164681441220105 0.022269284396602723 0.0
0.48912437490067595 -0.00041996788971368666 0.04
0.4642419910175897 0.06 0.04
-0.8353421249080566 0.06 0.04
0.8649535140731797 -0.02016838668923704 0.0
0.8973163514988121 0.02144006532192878 0.04
0.5625923446839085 0.06 0.04
0.6103276788742331 0.06 0.0
0.5943416245309461 0.018901239582525348 0.04
0.5790918012159274 0.021628695864523574 0.0
-0.593631917725493 -0.01946781888421301 0.04
-0.6103276788742336 -0.06 0.04
-0.6407079554435648 -0.019738458112036637 0.039999999999999994
-0.6264545933043166 -0.021459100211208025 0.0
-0.6103276788742331 -0.06 0.0
-0.6103276788742336 0.06 0.0
-0.6240641012293764 0.022292119262118645 0.04
-0.6414775595248179 0.020020515529780993 0.0
-0.5943416245309461 0.018901239582525348 0.0
-0.5790918012159274 0.021628695864523574 0.04000000000000001
-0.5625923446839077 0.06 0.04
-0.6103276788742331 0.06 0.04
-0.5625923446839085 0.06 0.0
-0.7325903506195701 -0.020274227246539274 0.039999999999999994
-0.7176321617908783 -0.019839353713154383 0.0
-0.7309057796957548 0.02177174945441851 0.0
-0.7736855084518748 0.020914979208800512 0.0
-0.7613659684934695 0.020945326906433456 0.04
-0.6571281419012174 0.06 0.04
-0.6719637381218919 0.02110482676547816 0.039999999999999994
-0.7030120427199952 0.06 0.04
-0.687851041884645 0.021313940245698455 0.0
-0.029521960903255984 -0.06 0.04
-0.05860957814939871 -6.938893903907228e-17 0.039999999999999994
-0.05860957814939863 5.898059818321144e-17 0.0
-0.08769719539554167 -0.06 0.0
-0.08769719539554144 -0.06 0.04
-0.2823507532564078 -5.204170427930421e-17 0.04
-0.25547572826437986 0.06 0.04
-0.25547572826438003 0.06 0.0
0.38751191920162714 6.938893903907228e-18 0.0
0.3352618020299945 -3.469446951953614e-18 0.0
0.36192316205531716 0.06 0.04
0.3619231620553172 0.06 0.0
-0.36192316205531716 0.06 0.0
-0.335244821032008 -1.1796296425746478e-06 0.0
-0.3352618020299945 -3.469446951953614e-18 0.039999999999999994
-0.38745316199969926 -7.894682722445895e-06 0.0
-0.3619231620553172 0.06 0.04
-0.3092257782484355 0.06 0.04
0.28235075325640757 5.551115123125783e-17 0.039999999999999994
0.30922577824843556 -0.06 0.0
0.335244821032008 -1.1796296425746478e-06 0.04
0.3092257782484355 -0.06 0.04
0.36192316205531716 -0.06 0.0
0.38745316199969926 -7.894682722445895e-06 0.04
0.3092257782484355 0.06 0.0
-0.38751191920162714 6.938893903907228e-18 0.04
-0.28235075325640757 5.551115123125783e-17 0.0
-0.30922577824843556 0.06 0.0
0.6103276788742336 -0.06 0.0
0.593631917725493 -0.01946781888421301 0.0
0.6264545933043166 -0.021459100211208025 0.04
0.4889627886584896 -0.027603176797077415 0.020155725176282127
0.583287522480325 -0.023728770665855194 0.039999999999999994
0.5450807564691462 -0.01715484187473429 0.0
0.5409244119327052 -0.005150142234760652 0.04
-0.48912437490067595 -0.00041996788971368666 0.0
0.3619231620553172 -0.06 0.04
-0.657128141901218 0.06 0.0
0.9600374798207896 -0.027590413451835553 0.0
1.0 0.0 0.04
0.9589620457797374 -0.028177574718636023 0.04
0.5625923446839077 -0.06 0.04
0.5625923446839085 -0.06 0.0
0.7766984080639845 -0.02052537972713625 0.0
-0.438611990705585 -5.252150912499892e-05 0.0
-0.583287522480325 -0.023728770665855194 0.0
-0.9600486361512215 0.06 0.0
-0.95349853104827 0.02147987272312249 0.0
-0.9192992165657539 0.06 0.0
-0.9192992165657531 0.06 0.04
-1.0 0.06 0.0
-0.14473309882269625 -0.06 0.04
-0.14473309882269605 -0.06 0.0
-0.11621514710911887 -1.214306433183765e-16 0.0
-0.17269254160055947 1.1796119636642288e-16 0.0
-0.14473309882269625 0.06 0.0
-0.11621514710911884 1.214306433183765e-16 0.039999999999999994
-0.8353421249080566 -0.06 0.0
-0.8353421249080575 -0.06 0.04
-0.8973163514988121 0.02144006532192878 0.0
-0.897529295217204 0.022569895749215793 0.04
0.11621514710911887 -1.214306433183765e-16 0.039999999999999994
0.05860957814939871 -6.938893903907228e-17 0.0
0.05860957814939863 5.898059818321144e-17 0.039999999999999994
0.08769719539554144 0.06 0.04
0.6103276788742336 0.06 0.04
0.5139034646412424 -0.06 0.0
0.9096368506350345 -0.020963842829632554 0.04
0.805541091654972 0.020469431563422978 0.0
0.8052789150181434 -0.019306901564895652 0.04
0.8203038938742353 -0.020636147377884773 0.0
0.08769719539554144 -0.06 0.0
0.08769719539554167 -0.06 0.04
0.9192992165657531 -0.06 0.04
0.8164681441220105 0.022269284396602723 0.039999999999999994
-0.9103536180674616 -0.021283841161765512 0.04000000000000001
-0.8777357995360431 -0.06 0.0
-0.9096368506350345 -0.020963842829632554 0.0
0.8570647961856006 -0.015388027432140593 0.04
0.7921016077200956 -0.06 0.04
0.8353421249080566 -0.06 0.04
0.7921016077200962 -0.06 0.0
0.4135884955929341 0.06 0.04
0.43891524330526177 8.673617379884035e-17 0.0
-0.7921016077200956 -0.06 0.0
-0.08769719539554144 0.06 0.0
0.14473309882269605 0.06 0.0
0.1726925416005594 -1.214306433183765e-16 0.0
0.11621514710911884 1.214306433183765e-16 0.0
-0.029521960903255984 0.06 0.0
0.0 0.0 0.0
0.17269254160055947 1.1796119636642288e-16 0.04
0.14473309882269625 0.06 0.04
0.0 0.0 0.04
0.2006519843784229 0.06 0.04
0.22806385632140147 -1.1796119636642288e-16 0.04
0.22806385632140147 1.0755285551056204e-16 0.0
-0.6720046167250797 -0.020579604775701428 0.0
-0.7030120427199962 -0.06 0.04
-0.7030120427199952 -0.06 0.0
0.25547572826438003 0.06 0.04
0.30922577824843556 0.06 0.04
0.25547572826437986 0.06 0.0
-0.02952196090325599 0.06 0.04
0.2006519843784232 -0.06 0.04
0.14473309882269605 -0.06 0.04
0.2006519843784229 -0.06 0.0
0.14473309882269625 -0.06 0.0
0.2823507532564078 -5.204170427930421e-17 0.0
-0.36192316205531716 -0.06 0.04
-0.41358849559293387 -0.06 0.0
0.5372746904547943 0.02439300391790418 0.0
0.5139034646412424 0.06 0.04
-0.5139034646412424 -0.06 0.04
0.41358849559293387 0.06 0.0
-0.7171469290115033 0.021165332718839136 0.04
-0.7479973317145417 0.06 0.04
-0.7030120427199962 0.06 0.0
0.08769719539554167 0.06 0.0
0.029521960903255984 -0.06 0.0
-0.02952196090325599 -0.06 0.0
0.02952196090325599 -0.06 0.04
0.02952196090325599 0.06 0.0
0.029521960903255984 0.06 0.04
-0.47805793986482265 0.03008719549728311 0.01940109733029794
-0.4642419910175897 0.06 0.0
0.6103276788742331 -0.06 0.04
1.0 -0.06 0.04
0.9600486361512205 -0.06 0.04
0.9600486361512215 -0.06 0.0
-0.3092257782484355 -0.06 0.0
0.877735799536044 -0.06 0.0
0.8777357995360431 -0.06 0.04
-0.41358849559293387 0.06 0.04
-0.4135884955929341 0.06 0.0
1.0 -0.06 0.0
1.0 0.0 0.0
-0.14473309882269605 0.06 0.04
-1.0 -0.06 0.0
-0.9600486361512215 -0.06 0.04
-1.0 -0.06 0.04
-0.7921016077200962 0.06 0.0
-0.9192992165657531 -0.06 0.0
-0.9600486361512205 -0.06 0.0
-0.7921016077200956 0.06 0.04
-0.7766984080639845 -0.02052537972713625 0.04
-0.5625923446839085 -0.06 0.04
-0.5625923446839077 -0.06 0.0
-0.877735799536044 -0.06 0.04
0.7921016077200962 0.06 0.04
-0.3619231620553172 -0.06 0.0
-0.7479973317145423 0.06 0.0
-0.8777357995360431 0.06 0.04
-0.4135884955929341 -0.06 0.04
-0.46424199101758934 -0.06 0.0
0.513903464641242 -0.06 0.04
-1.0 0.0 0.04
-0.877735799536044 0.06 0.0
-0.30922577824843556 -0.06 0.04
[...]
POINT_DATA 584
VECTORS displacement double
-0.011047172319954033 0.007319480978941386 0.010132835889109848
-0.011503757370293275 0.01883565233504313 0.018174018485383994
-0.008642417712841613 0.0055185166664742675 0.01632187089638762
-0.027116699733859193 0.004703578549887601 0.007610687569731138
-0.003538954045700029 -0.03474821371572531 -0.003822424225375538
-0.007653045915268304 -0.005303267366817584 -0.0064123141873153955
-0.010316990068459328 -0.024552476937570185 -0.012933768809134872
-0.00682654247701325 -0.006012557733959663 -0.005293104885771241
-0.003935949564337494 -0.029369939465906245 -0.007935067635475308
-0.022004846637230024 -0.003053827476818366 -0.013664556893609984
-0.008806202404201524 -0.00828428054774188 -0.016468428567593403
-0.02092701812541345 -0.020347701555637504 -0.007374232040023679
0.0001893737191829036 -0.048289367614465506 0.009323015207254228
-0.00045962911168700396 -0.017294695321474547 0.009341909833912728
0.0013708273831669101 -0.015085045280876971 0.010455300989502455
-0.011022192241653026 -0.03886182313988545 0.0024157965961042567
0.04657303102031412 0.019782650861304495 -0.0037264734652608495
0.0031638556057536757 0.004203417110355104 -0.008724479256068542
0.03955053526010967 -0.017148945566534998 -0.010051189998175109
0.04222407950260702 -0.007299947494597944 -0.012011586742628325
0.017378434759646868 -0.0624185125582184 0.020672420767701767
0.017524795240271236 -0.04785676363216575 0.020514819472772797
0.019915294648490747 -0.011517281782905744 0.026398156648820885
0.036481810918442444 -0.004375699368999712 0.014673539368994747
-0.008099279742595368 -0.04336210406100901 0.006469132066394631
-0.005004184859506693 -0.055792089488581456 0.006831574294175737
-0.008390454920777023 0.005030875050750019 0.005632937395874594
-0.015976981276947043 -0.018709415521010582 -0.0032136238354446935
-0.004996953281722228 0.007543819294719751 -0.003151240738154399
-0.017289554434575475 0.024478335541177353 -0.01106677776330405
-0.003099238097790906 -0.002456893471721064 -0.004622985820800565
-0.005904003990181993 -0.01825997279656458 0.0006633721586795426
-0.006856292999974994 0.02829309145756787 -0.0015346685318691085
-0.012250202418453591 0.02797251823575734 0.0044492463085458985
0.0017862942808925225 -0.007326656309355273 0.004791415951289169
-0.003308304644945512 0.013964667624016451 0.012102034486222057
-0.010098557579309109 0.004834628361777536 0.012562731090323945
0.009069418748121843 -0.012013696264970172 -0.013741581804390961
0.0013219377193601227 0.03485422263286521 -0.012510598150592137
-0.009150647702530448 0.032982559417320555 0.00270795210349235
-0.008975491185544608 -0.0009665160070256784 -0.0011290165959071746
-0.005691049894926538 0.046531700900993705 -0.008979359557828576
-0.005695257731913109 0.011215744773970393 -0.008636116708722148
0.027607901431426045 0.032479642121276145 -0.00729252491058447
-0.0015724033069745673 -0.018350276400279992 -9.933216377596316e-05
0.027722249312838704 -0.015159848716766067 0.012637934681024175
-0.013486590385892875 0.010570234281624367 0.020672410688632535
-0.020106592395005646 -0.003175114648850217 0.023484568542007707
-0.010413679017553624 0.00626433318669315 0.026176815463251093
-0.00647905106492985 -0.010492872239467202 0.01318688649255335
-0.03838127222051338 -0.003808575379408522 -0.004795765412693919
-0.014891876430914901 -0.026147914513268904 -0.006895557030475575
-0.03558144717247183 -0.010386543977348566 -0.004871355851698736
-0.013247335636634007 -0.0005342974317296751 -0.0016633686023604895
-0.012142343560910648 0.01386835193208618 -0.0017022746087394392
-0.010171510170917034 -0.015886509138786333 0.003983184129578292
-0.020110103426401103 -0.025378731534475337 -0.003510160366477517
-0.009178239318207639 -0.005957387182950897 0.004766433249825163
-0.004025073560213937 -0.04290980891026828 0.003390341771427528
-0.006158251349978068 0.027951097961066807 0.004175604425932264
-0.012680719532130694 -0.01694896252910636 -0.016019086237955758
-0.007792348113751166 0.012563535711494626 0.003199481105578956
-0.0032867109368481715 -0.03040688693597781 -0.0020650942747917826
0.01430025449925061 0.013820376467979725 -0.002409826037279912
0.016173695880115763 0.012773844562185593 0.0016104675063962153
0.024617662811603783 -0.05788330128419214 0.010709339346805282
-0.015268956257750337 -0.05062623321919315 -0.012295409093930666
-0.01799225753478124 -0.046938678123630166 -0.023024515968938477
-0.005504358652298502 -0.05310716515575927 -0.0018765525397580213
-0.016082131439154504 -0.04879114847955382 -0.01643939426899958
0.020579185123596588 -0.05763198021734257 0.010574712734335545
-0.019108132480615603 0.0019837738376479066 -0.009541144051301222
-0.006977535905003851 -0.04063754957304006 -0.0004140018701760284
-0.006695645999037195 -0.03309879236265427 -0.021996428643518744
-0.0013604137114779941 -0.00523591578492995 -0.012959186267489275
-0.005594405829470313 0.018690741399167782 -0.013680709174635668
-0.010943214242157709 -0.028944578669734933 0.006076685270659039
-0.00930130493562434 0.010119844403841364 -0.02899149992684605
-0.006063858458697886 0.007071187210363401 -0.025205402499976055
-0.005338658426887117 0.018442712298198286 -0.008392092343538207
-0.004408037093740088 -0.0030115005807040004 -0.008384895313037351
-0.0011819980155703814 0.007452048411545652 -0.010956062538599603
0.03423491502466281 -0.0004370270475482509 -0.018040139315483646
-0.009433573043812522 -0.008444051757700265 -0.013335682453970219
-0.008795637164719533 0.006245552494262485 -0.010867788700512021
0.024265119777231326 0.012348170733061745 -0.023033667784901228
-0.004363432318261068 0.005700820162237097 0.019282275781795154
-0.016424925401674218 -0.01937846404239597 -0.0023108770004386324
-0.019356624452196998 0.01966894202490875 0.007672312437708194
-0.012480278795077534 0.010081991995909775 0.0005198912363778103
-0.011043818129429612 0.002241162532717936 0.002240909614942836
-0.014828838102690225 0.01920561635042725 0.016968759639540584
-0.0045009928921283795 -0.009115412000500442 0.017980653283929397
-0.013059587671408456 0.03198054193769759 0.01621009667108223
0.0035078063178842103 -0.010369812320003774 -0.013275994025762454
0.0020455283944537544 -0.002907160220284281 -0.006044513238287719
0.001355204469663891 0.0002734221740741937 -0.009632674223571058
-0.016561607960714965 -0.0007157611029765429 -0.016895434786554506
-0.010639637117523738 -0.0029818501912305087 -0.012082789308356875
0.030896995910781527 0.07382169613061362 0.01608303575709536
0.0020405859408803356 0.025804552605614667 -0.002103144358559775
0.043615853010615734 -0.037166682728308253 0.005155859956906642
0.008381931769750094 0.019039983174485114 -0.0002743986653092948
0.032543112848961164 -0.007469999540532502 0.007351764160925849
-0.0042661529842510084 -0.01693775671261874 0.0005878382706417384
-0.0018147720279569532 -0.022205452378178562 0.0028505004106724836
0.02475867550884867 -0.010822919723229326 0.014607389330658208
0.022709280592424736 7.107787919240377e-05 0.01604662572204289
-0.0036491139931866907 -0.05769315372989748 0.006132444246504188
-0.033864633558055 0.0011480932698699222 -0.016680041371198783
-0.03299170463524195 -0.020317192961311164 -0.01058855214710317
-0.0091398206309047 0.04933170956325184 -0.0037115945352010887
-0.0003203022340068796 0.0357215424219558 0.0007180155028895424
-0.021038265074218843 0.06139473895395999 0.007126764286651674
-0.019987485626562364 0.06510591160175341 0.007303582833641808
-0.026880466340661192 0.024770928326695946 -0.002796843193318478
-0.0035776085054258526 0.027835669553600936 0.007553095398242779
-0.006754516853256339 0.042875519142450615 0.0046547021696144615
-0.008141364699342476 -0.00644252642156057 0.0004658093453485946
-0.03185047408614746 0.032475918774147114 -0.003740062059018205
-0.00879756066411579 -0.019831425337128384 -0.007411813777141982
-0.004764060839619264 -0.0394697117648345 -0.0027499048907410196
0.028918689803877934 0.006058957731030383 -0.02187274382881818
-0.003218574092404562 0.023942608412511775 -0.003538000049715097
0.030454436344222315 -0.007780719297243715 -0.022419737838327212
0.02507129291066928 0.045720474072373 -0.009582805557768456
-0.0063931452869202005 0.0506305259489095 -0.0011294701894302036
-0.02025863112425732 0.002967028925414161 0.01841798009581506
-0.007058758634851506 -0.007594155876927652 0.0012654318836634961
-0.005434075948173607 -0.06242430549258986 0.005680512469703518
-0.0063777316511311275 -0.024662782863471948 -0.0059551058172624205
0.02331368012224384 -0.0007871219259660972 0.03059674017325878
0.0008058236929246506 -0.0017697929496131558 0.012182910597096842
0.0006347196951478732 0.010822304335045309 0.011202185092722002
0.0010490314263018727 -0.047199653518977445 0.007594943826492861
0.00023361396427924266 0.014959152243497923 0.012290730200120023
0.002165502892420694 -0.016110398159296706 0.009319284751538794
-0.0043286615169788566 0.0008699696144003949 0.003665024680792938
-0.007941489320203226 0.011595691846146339 -0.0033417283111630337
0.02683654658566671 0.037822095604796095 -0.010729241988890869
0.02728239128840841 0.06055643326624045 0.008046053988124404
0.023206519175390884 0.016122965977855532 -0.0017827698409015763
0.0023130758269358682 -0.004612388807783617 0.01956192031069678
0.011797817638482515 0.007776782517021491 -0.004071427103395233
0.020574204144992652 0.006456171921130663 0.02887388818510998
0.025153693836230676 -0.012246562106652308 0.03025727139930891
-0.00792421235194921 0.024920139782475488 -0.0008816474277989901
-0.0015289704281077135 -0.01357338757865177 1.2708487186854358e-05
-0.0008054666066544763 0.02321558591126954 -0.012961561959028286
0.020611797469069083 -0.014339891679535916 0.003336558915655628
-0.02333259245170262 0.000139695640179123 0.010225026725525749
0.01429679014123789 0.0063075638692529695 -0.004673107176567645
0.032495402907509185 0.019976404668302708 0.007570790147149862
0.006546420174581203 0.060468018406928385 0.007242719163124902
0.035364602792275074 -0.02333193637337351 0.021356488057894734
0.03819380184305036 -0.031198851528623613 0.01866152731495449
-0.0037182235757065095 -0.00572097406415041 0.0023587567090771525
-0.005378109008354116 -0.051806217907896565 0.0018801602667518258
-0.02967611187848642 -0.04028416812090317 -0.017916950761600155
-0.0009147270109423728 0.01005126907639255 0.0015637315989520586
0.05059291978179297 -0.017855723891983206 0.0030327843210832543
0.053947462916314054 -0.017374170468744916 0.005168347535228659
-0.029196960348738116 -0.01368373481159265 0.005990296542460626
-0.03081423699573994 -0.0031404548125978184 0.004588920856736564
-0.004424067853077413 -0.007794917510332411 0.0011294714743432985
-0.005050426417705167 -0.0159665339798269 0.002724055950501985
-0.005809774293208549 -0.02149610050354086 0.0021254771732352046
-0.022389045012849232 -0.05086482757719255 0.015219541924592732
-0.008650840988569677 0.03296063799635597 -0.02614145764320944
0.02680879895961857 -0.03239789209733795 0.023493300496664937
0.008955735243674745 -0.03459591612935963 -0.0065716787873977625
-0.014310445892372115 0.034217840099786574 -0.0034284819352101334
0.0058185467202444136 0.034399722556750674 -0.005318256910533946
0.0050679131600400535 0.03395351988627457 -0.00939021836421976
0.014584380781047183 -0.032667941303192 -0.01339580746254572
0.02621532938369312 -0.047826384741037876 -0.012190829981659948
0.07101554293690253 0.0020572328636322065 -0.028754974080098767
-0.017261798554283378 0.03710714200939393 -0.0029052733020197632
-0.016482003835191838 -0.009029054780013857 0.013963727647944039
0.05375374488796809 -0.0006029330720053346 0.009867314531502101
-0.016466671892832015 -0.014248901495665472 0.013611222864829655
-0.008141864889480053 0.0017574434068698057 -0.011263414692093913
0.04453254052910585 0.06670816765638679 -0.00189805708144343
0.04369534962753979 -0.002008333119868835 -0.028659995799404567
0.03461475980809114 0.05897917631904511 0.00037450411430288763
-0.010111545714408487 -0.0045653454001943665 -0.003284007099068288
-0.004889579458713773 -0.03761867296478837 -0.005935450223801911
0.04749777328682298 0.015854708808941048 -0.003126025986643398
-0.01585565269095706 -0.008518297618282 -0.013744791696833864
-0.013372886234958763 0.04848436548683192 0.022949818608427486
-0.005481359448793935 0.06897686217769586 -0.00038233715279429627
-0.004417360612842016 0.0037803533234729626 0.0009826735722799262
-0.026175957570942175 -0.004196903993311712 -0.007000230785088405
-0.004267138603099841 0.03137824568972272 0.003026138614300799
-0.005344172418152698 0.05209112640422794 -0.00032873959858512665
-0.019190667790969312 0.03915887344084038 0.018971413829135288
-0.004616740694125037 0.04007596163506881 0.0013184116440621795
-0.010383576531263577 0.02926428172195374 0.028617159922586694
-0.005190967519899307 0.007278140075176508 -0.0016492088891531481
-0.0053127098689898355 0.025760454787126033 -0.0016183607968156218
-0.006668019054581099 -0.002976063207870045 -0.004608471211155731
0.033888339944588154 -0.01917091029842939 -0.011909433642176498
0.035550146536576156 -0.009742937156643483 -0.01308978992006874
-0.008657227317235418 -0.025252719077639953 0.024572844479355347
-0.020961397969917868 -0.015525849978056443 0.019807646332832593
-0.005220418509093146 -0.00544713649260678 0.025524283067580537
-0.02580270892372101 -0.01060614928337845 0.0009589033399702701
0.012586019787790118 0.02942490839644937 -0.02979604298815072
0.024083290891921915 0.035463823720022686 -0.019740516136158598
0.007758880361510689 0.050052375018254755 -0.027699440006363714
0.018180533755890817 0.04624246074460236 -0.022687732922865172
-0.004780349013864849 -0.022629425992195126 -0.002421136768039481
0.03804844238814427 0.03617447439145631 0.011478749627906293
0.02995371309307832 -0.03110143843317855 -0.0005498761976467005
-0.006211370176152052 -0.026892640074288945 -0.0121466461673672
-0.0132496025109393 -0.03507658811006785 -0.023848994967595898
0.012751601910492856 -0.005470708728091369 -0.025965661830226663
-0.009225679712732618 -0.0008602991965769338 -0.003112062345901907
-0.002039899379236195 0.030468227926808183 -0.004528908554626152
0.0016247489534639075 -0.04355686735215829 -0.013195960918817116
0.03374867897827843 -0.010279904796043505 -0.0024458268783291133
-0.0100301119798393 -0.03586867814443393 0.01639150932417356
0.01169758652681811 0.022854511265779743 -0.0019004524909329338
0.031130115265472057 -0.007923303331398313 0.00764071063716683
0.014642500139567563 0.01914318537023563 0.0012453398698954751
-0.006717019180630053 0.02277824847066483 0.005051193025376319
-0.010922356594138366 0.023958677681897945 0.0035804402749106093
-0.010046388736743987 0.00017514092345795752 0.005686251514410035
-0.01374247605105977 -0.0014152767163291772 0.008296903671912837
0.019943723339473324 0.021633101114019063 0.030174214180523656
0.04489856021849464 0.03442732723830508 0.01606672323616563
0.058541407846213644 -0.02212845955898343 -0.0177268392433732
0.06913475222019146 0.008028717929215518 -0.015466647081365392
0.013317839070071669 -0.026586309991006404 0.019103594919326606
0.04924762499832344 0.031776338641067804 -0.020912644614444805
0.047349435598136556 0.03299560244622092 -0.020341349925109952
-0.023234459845489535 -0.014890100398105073 0.002096418403294624
-0.018181198795226988 -0.01208734246364003 0.0024733521579529336
0.05937680653518048 0.03832400380338315 0.005550483989220218
0.004613293567516201 0.007375168576946152 0.01429611304441821
-0.028555443301818847 -0.03222688400200523 -0.01662170311298964
0.03511512240897212 -0.06748156226631646 0.014714357100525719
0.05917045663225832 0.06167004619140158 0.03794791256598717
0.04909868520411245 -0.0927959568513676 0.021647605892523385
0.0024687446274881185 0.006677595648303742 -0.02616599799865279
0.059219288210445004 -0.02555379546906635 0.02066989366621016
0.048013640164724126 0.01770001177381414 0.018913691177327847
-0.0014765302960638269 0.010327024164921941 -0.0210785347044895
0.0005704779226965738 0.018948720348056888 -0.01060687010576366
0.02915972642318695 0.017022702804094656 -0.029291713619330653
0.024646059463923113 0.03246984640879685 -0.02367454833979725
0.05476395178860064 0.011791568516186682 0.011240680050419668
-0.042587254077616196 0.04164725606631488 -0.004556268808150668
0.03298898943859201 0.029161603097288685 0.010745272374186656
0.011365913001607731 -0.03069268857847066 -0.0120678712361513
0.013649948575943795 -0.02480328241601949 -0.0018431761280977446
0.03342704675057433 -0.036697654629536614 -0.0029225753174737684
0.022517647860550147 0.025267321100009003 -0.008642798872091247
0.023460917622126657 -0.011476905404543016 0.024799746805057973
-0.024402559474172164 0.028344489845001725 -0.020793389001055818
0.010547896401023873 -0.027860911552190167 -0.006534409804504609
0.019318400530166927 -0.02512010696497348 0.021960999182885646
0.0369395774607096 -0.012976161401009911 0.024226905552997842
-0.01511481913267477 0.005029723706037925 -0.01422782409370176
0.010518378101580912 -0.005071184127548208 -0.028984915369304025
0.035676177088882835 -0.02355757752447938 0.01826757659089767
0.01982510818246417 -0.055630667787334914 0.016894551662181494
0.0743622893160126 -0.031036723541316032 0.024680786395633827
-0.004738275626671393 0.032825984328332954 0.0131262734219564
-0.007009599916576529 -0.014371143442395878 -0.014483464258128962
-0.006993839735441452 0.015661174487492224 0.019392357502347305
-0.010479459606530406 0.07033965598905327 0.011987244456555267
-0.008414001465125063 0.02222040002031452 0.012231110379081521
-0.016895385946784938 -0.003802884513970419 0.008619117602723827
0.031371901647195714 -0.0045484148048551476 -0.013457514061898525
0.006497645597694723 -0.029721931707388755 0.013372648127204173
-0.0043204000385723565 -0.020823975081906212 0.021301968983530872
0.012585762273988227 -0.023261925956594057 -0.031111605814667292
0.03665650188166082 0.010399048523197502 -0.020821487477710777
0.011966054975246809 0.01762558655347056 -0.019280091527396414
-0.013374690795215886 0.001533120891905649 -0.019703412963052183
3.8572394143579295e-05 -0.014938050991899978 -0.015579815570476292
-0.026276720352048092 0.007104280911585202 -0.01110050212927346
-0.02989690778125016 -0.010020194396155884 0.005164836022814189
-0.039894933635814644 0.03572439315512218 -0.007168446598261556
0.06564533681537638 -0.0012101991285402005 -0.0175065331713858
-0.01120451444498283 -0.009164054685771621 -0.027020862395517084
0.032747803055095746 -0.011035790656410062 -0.013856233235629232
0.020159178749246266 -0.02822261340107654 0.026954016112058724
0.014683490603810159 0.010469694066892587 0.020948323674204922
0.018136442691419296 -0.006012314410800306 0.019658804953571623
-0.003203893713467157 0.04933926226437622 0.024281126105169304
0.054421745148616564 0.006688760401645424 0.01376430594183807
-0.017631037892534767 0.06621825566243289 0.006134714628579063
0.03696145280493649 0.08708398807678568 0.022477172070019216
0.009464001873136311 0.004157047782915747 -0.0058052115794631565
-0.004768157435473022 -0.0179047364450332 -8.945069505898272e-05
-0.011447946688375602 0.02932252850303703 -0.009711379560095719
-0.009393883706647491 -0.019740011024747362 -0.007005587912191653
0.0445133980083105 0.0013581429886385115 0.026749528365891413
0.020938306987017367 0.0008543106040554204 0.02663749409060683
-0.00013198254119401226 0.04816614761654438 0.004635540409148537
-0.010205390875331712 -0.011185878745240692 0.006872928852328563
0.009469469191623954 -0.026957477863416172 -0.012090421642444988
-0.008075580239787586 -0.02709052256956541 0.006941843264530808
-0.013067302006646892 0.002336523230627167 0.01562171551864153
-0.03884630325634529 -0.06061413959322547 0.007888146392170978
-0.06296464045480275 0.037518803077717086 0.02519867116510758
0.056086772242122405 -0.010922111687544034 0.00983734461094347
0.006669566824093104 0.014325140446680448 -0.0025744505381505266