# vtk DataFile Version 2.0
Really cool data
ASCII
DATASET UNSTRUCTURED_GRID
POINTS 584 double
-1.0 0.0 0.0
-0.9600374798207896 -0.027590413451835553 0.04
-0.9589620457797374 -0.028177574718636023 0.0
-0.9553815213922792 0.019675326217199102 0.04
0.6719637381218919 0.02110482676547816 0.0
0.6414775595248179 0.020020515529780993 0.04
0.6571281419012174 0.06 0.0
0.6240641012293764 0.022292119262118645 0.0
0.687851041884645 0.021313940245698455 0.04
0.7030120427199962 0.06 0.04
0.657128141901218 0.06 0.04
0.7030120427199952 0.06 0.0
0.6885310613992013 -0.0196061899732657 0.0
0.6720046167250797 -0.020579604775701428 0.04
0.6407079554435648 -0.019738458112036637 0.0
0.7171469290115033 0.021165332718839136 0.0
-0.7921016077200962 -0.06 0.04
-0.7604373514312079 -0.019298436119384588 0.0
-0.7479973317145423 -0.06 0.04
-0.7479973317145417 -0.06 0.0
0.7030120427199962 -0.06 0.0
0.7030120427199952 -0.06 0.04
0.6571281419012174 -0.06 0.04
0.7479973317145417 -0.06 0.04
0.7325903506195701 -0.020274227246539274 0.0
0.7176321617908783 -0.019839353713154383 0.04
0.7604373514312079 -0.019298436119384588 0.04
-0.8488906624897727 0.019856366527450334 0.04000000000000001
-0.8052789150181434 -0.019306901564895652 0.0
-0.805541091654972 0.020469431563422978 0.04000000000000001
-0.8203038938742353 -0.020636147377884773 0.04
0.897529295217204 0.022569895749215793 0.0
0.8488906624897727 0.019856366527450334 0.0
0.8569454102823642 0.029774901726562965 0.04
0.8777357995360431 0.06 0.0
0.9553815213922792 0.019675326217199102 0.0
0.95349853104827 0.02147987272312249 0.04
0.9103536180674616 -0.021283841161765512 0.0
-0.5450807564691462 -0.01715484187473429 0.04000000000000001
-0.5372746904547943 0.02439300391790418 0.04
-0.49049502097572617 0.000359712426279548 0.04000000000000001
-0.5409244119327052 -0.005150142234760652 0.0
-0.48901428549955095 -0.02776609156780287 0.019771763033692314
-0.4642419910175897 -0.06 0.04
-0.43891524330526177 8.673617379884035e-17 0.04000000000000001
0.7479973317145423 -0.06 0.0
0.9600486361512215 0.06 0.04
1.0 0.06 0.04
1.0 0.06 0.0
0.9192992165657531 0.06 0.0
0.7479973317145423 0.06 0.04
0.7309057796957548 0.02177174945441851 0.039999999999999994
0.7479973317145417 0.06 0.0
0.7613659684934695 0.020945326906433456 0.0
0.7736855084518748 0.020914979208800512 0.04
-0.8570647961856006 -0.015388027432140593 0.0
-0.8569454102823642 0.029774901726562965 0.0
-0.8649535140731797 -0.02016838668923704 0.039999999999999994
-0.1726925416005594 -1.214306433183765e-16 0.039999999999999994
-0.22806385632140147 1.0755285551056204e-16 0.039999999999999994
-0.2006519843784229 0.06 0.0
-0.22806385632140147 -1.1796119636642288e-16 0.0
0.438611990705585 -5.252150912499892e-05 0.04
0.41358849559293387 -0.06 0.04
0.4135884955929341 -0.06 0.0
0.4642419910175897 -0.06 0.0
0.4782715374234063 0.0302584611690398 0.019894876072988572
0.513903464641242 0.06 0.0
0.49049502097572617 0.000359712426279548 0.0
0.46424199101758934 0.06 0.0
0.46424199101758934 -0.06 0.04
-0.8164681441220105 0.022269284396602723 0.0
0.48912437490067595 -0.00041996788971368666 0.04
0.4642419910175897 0.06 0.04
-0.8353421249080566 0.06 0.04
0.8649535140731797 -0.02016838668923704 0.0
0.8973163514988121 0.02144006532192878 0.04
0.5625923446839085 0.06 0.04
0.6103276788742331 0.06 0.0
0.5943416245309461 0.018901239582525348 0.04
0.5790918012159274 0.021628695864523574 0.0
-0.593631917725493 -0.01946781888421301 0.04
-0.6103276788742336 -0.06 0.04
-0.6407079554435648 -0.019738458112036637 0.039999999999999994
-0.6264545933043166 -0.021459100211208025 0.0
-0.6103276788742331 -0.06 0.0
-0.6103276788742336 0.06 0.0
-0.6240641012293764 0.022292119262118645 0.04
-0.6414775595248179 0.020020515529780993 0.0
-0.5943416245309461 0.018901239582525348 0.0
-0.5790918012159274 0.021628695864523574 0.04000000000000001
-0.5625923446839077 0.06 0.04
-0.6103276788742331 0.06 0.04
-0.5625923446839085 0.06 0.0
-0.7325903506195701 -0.020274227246539274 0.039999999999999994
-0.7176321617908783 -0.019839353713154383 0.0
-0.7309057796957548 0.02177174945441851 0.0
-0.7736855084518748 0.020914979208800512 0.0
-0.7613659684934695 0.020945326906433456 0.04
-0.6571281419012174 0.06 0.04
-0.6719637381218919 0.02110482676547816 0.039999999999999994
-0.7030120427199952 0.06 0.04
-0.687851041884645 0.021313940245698455 0.0
-0.029521960903255984 -0.06 0.04
-0.05860957814939871 -6.938893903907228e-17 0.039999999999999994
-0.05860957814939863 5.898059818321144e-17 0.0
-0.08769719539554167 -0.06 0.0
-0.08769719539554144 -0.06 0.04
-0.2823507532564078 -5.204170427930421e-17 0.04
-0.25547572826437986 0.06 0.04
-0.25547572826438003 0.06 0.0
0.38751191920162714 6.938893903907228e-18 0.0
0.3352618020299945 -3.469446951953614e-18 0.0
0.36192316205531716 0.06 0.04
0.3619231620553172 0.06 0.0
-0.36192316205531716 0.06 0.0
-0.335244821032008 -1.1796296425746478e-06 0.0
-0.3352618020299945 -3.469446951953614e-18 0.039999999999999994
-0.38745316199969926 -7.894682722445895e-06 0.0
-0.3619231620553172 0.06 0.04
-0.3092257782484355 0.06 0.04
0.28235075325640757 5.551115123125783e-17 0.039999999999999994
0.30922577824843556 -0.06 0.0
0.335244821032008 -1.1796296425746478e-06 0.04
0.3092257782484355 -0.06 0.04
0.36192316205531716 -0.06 0.0
0.38745316199969926 -7.894682722445895e-06 0.04
0.3092257782484355 0.06 0.0
-0.38751191920162714 6.938893903907228e-18 0.04
-0.28235075325640757 5.551115123125783e-17 0.0
-0.30922577824843556 0.06 0.0
0.6103276788742336 -0.06 0.0
0.593631917725493 -0.01946781888421301 0.0
0.6264545933043166 -0.021459100211208025 0.04
0.4889627886584896 -0.027603176797077415 0.020155725176282127
0.583287522480325 -0.023728770665855194 0.039999999999999994
0.5450807564691462 -0.01715484187473429 0.0
0.5409244119327052 -0.005150142234760652 0.04
-0.48912437490067595 -0.00041996788971368666 0.0
0.3619231620553172 -0.06 0.04
-0.657128141901218 0.06 0.0
0.9600374798207896 -0.027590413451835553 0.0
1.0 0.0 0.04
0.9589620457797374 -0.028177574718636023 0.04
0.5625923446839077 -0.06 0.04
0.5625923446839085 -0.06 0.0
0.7766984080639845 -0.02052537972713625 0.0
-0.438611990705585 -5.252150912499892e-05 0.0
-0.583287522480325 -0.023728770665855194 0.0
-0.9600486361512215 0.06 0.0
-0.95349853104827 0.02147987272312249 0.0
-0.9192992165657539 0.06 0.0
-0.9192992165657531 0.06 0.04
-1.0 0.06 0.0
-0.14473309882269625 -0.06 0.04
-0.14473309882269605 -0.06 0.0
-0.11621514710911887 -1.214306433183765e-16 0.0
-0.17269254160055947 1.1796119636642288e-16 0.0
-0.14473309882269625 0.06 0.0
-0.11621514710911884 1.214306433183765e-16 0.039999999999999994
-0.8353421249080566 -0.06 0.0
-0.8353421249080575 -0.06 0.04
-0.8973163514988121 0.02144006532192878 0.0
-0.897529295217204 0.022569895749215793 0.04
0.11621514710911887 -1.214306433183765e-16 0.039999999999999994
0.05860957814939871 -6.938893903907228e-17 0.0
0.05860957814939863 5.898059818321144e-17 0.039999999999999994
0.08769719539554144 0.06 0.04
0.6103276788742336 0.06 0.04
0.5139034646412424 -0.06 0.0
0.9096368506350345 -0.020963842829632554 0.04
0.805541091654972 0.020469431563422978 0.0
0.8052789150181434 -0.019306901564895652 0.04
0.8203038938742353 -0.020636147377884773 0.0
0.08769719539554144 -0.06 0.0
0.08769719539554167 -0.06 0.04
0.9192992165657531 -0.06 0.04
0.8164681441220105 0.022269284396602723 0.039999999999999994
-0.9103536180674616 -0.021283841161765512 0.04000000000000001
-0.8777357995360431 -0.06 0.0
-0.9096368506350345 -0.020963842829632554 0.0
0.8570647961856006 -0.015388027432140593 0.04
0.7921016077200956 -0.06 0.04
0.8353421249080566 -0.06 0.04
0.7921016077200962 -0.06 0.0
0.4135884955929341 0.06 0.04
0.43891524330526177 8.673617379884035e-17 0.0
-0.7921016077200956 -0.06 0.0
-0.08769719539554144 0.06 0.0
0.14473309882269605 0.06 0.0
0.1726925416005594 -1.214306433183765e-16 0.0
0.11621514710911884 1.214306433183765e-16 0.0
-0.029521960903255984 0.06 0.0
0.0 0.0 0.0
0.17269254160055947 1.1796119636642288e-16 0.04
0.14473309882269625 0.06 0.04
0.0 0.0 0.04
0.2006519843784229 0.06 0.04
0.22806385632140147 -1.1796119636642288e-16 0.04
0.22806385632140147 1.0755285551056204e-16 0.0
-0.6720046167250797 -0.020579604775701428 0.0
-0.7030120427199962 -0.06 0.04
-0.7030120427199952 -0.06 0.0
0.25547572826438003 0.06 0.04
0.30922577824843556 0.06 0.04
0.25547572826437986 0.06 0.0
-0.02952196090325599 0.06 0.04
0.2006519843784232 -0.06 0.04
0.14473309882269605 -0.06 0.04
0.2006519843784229 -0.06 0.0
0.14473309882269625 -0.06 0.0
0.2823507532564078 -5.204170427930421e-17 0.0
-0.36192316205531716 -0.06 0.04
-0.41358849559293387 -0.06 0.0
0.5372746904547943 0.02439300391790418 0.0
0.5139034646412424 0.06 0.04
-0.5139034646412424 -0.06 0.04
0.41358849559293387 0.06 0.0
-0.7171469290115033 0.021165332718839136 0.04
-0.7479973317145417 0.06 0.04
-0.7030120427199962 0.06 0.0
0.08769719539554167 0.06 0.0
0.029521960903255984 -0.06 0.0
-0.02952196090325599 -0.06 0.0
0.02952196090325599 -0.06 0.04
0.02952196090325599 0.06 0.0
0.029521960903255984 0.06 0.04
-0.47805793986482265 0.03008719549728311 0.01940109733029794
-0.4642419910175897 0.06 0.0
0.6103276788742331 -0.06 0.04
1.0 -0.06 0.04
0.9600486361512205 -0.06 0.04
0.9600486361512215 -0.06 0.0
-0.3092257782484355 -0.06 0.0
0.877735799536044 -0.06 0.0
0.8777357995360431 -0.06 0.04
-0.41358849559293387 0.06 0.04
-0.4135884955929341 0.06 0.0
1.0 -0.06 0.0
1.0 0.0 0.0
-0.14473309882269605 0.06 0.04
-1.0 -0.06 0.0
-0.9600486361512215 -0.06 0.04
-1.0 -0.06 0.04
-0.7921016077200962 0.06 0.0
-0.9192992165657531 -0.06 0.0
-0.9600486361512205 -0.06 0.0
-0.7921016077200956 0.06 0.04
-0.7766984080639845 -0.02052537972713625 0.04
-0.5625923446839085 -0.06 0.04
-0.5625923446839077 -0.06 0.0
-0.877735799536044 -0.06 0.04
0.7921016077200962 0.06 0.04
-0.3619231620553172 -0.06 0.0
-0.7479973317145423 0.06 0.0
-0.8777357995360431 0.06 0.04
-0.4135884955929341 -0.06 0.04
-0.46424199101758934 -0.06 0.0
0.513903464641242 -0.06 0.04
-1.0 0.0 0.04
-0.877735799536044 0.06 0.0
-0.30922577824843556 -0.06 0.04
[...]
POINT_DATA 584
VECTORS displacement double
-0.0007631907566426963 -0.0037840717092530204 -0.006830494314600126
-0.006719294852750791 -0.0176400628324519 -0.014364336482018914
-0.0006922899191054611 -0.004153782091101475 -0.014832321159806606
-0.00977440290461628 -0.028576952898697165 0.007797484381825735
-0.0061094051058756945 -0.02775542768504859 0.01464941379527753
-0.001996178711664337 -0.021973241941847618 0.01709018354661393
-0.002258296629731429 -0.023406624821556716 0.019754620326600986
-0.004940249620602118 -0.014860439153426707 0.01735419589302929
-0.0025356607723646236 -0.037195530639446875 0.01382480524208902
-0.0021593088843864525 -0.03570061051889982 0.01938250948182424
0.0014205308499895678 -0.027989395165724424 0.01994412983534358
-0.005569832845937622 -0.02961722687471805 0.018815723976911853
-0.0062038265943531795 -0.03001882052767601 0.007054222614038594
-0.0026917580379456777 -0.032332148877994446 0.009803879099673224
-0.004726629853913099 -0.01992146539709618 0.014069722907493466
-0.00760399825182379 -0.03211135295947648 0.011285014978060299
0.023089593609353243 0.02689693491368858 -0.00937867348165176
0.0008383855720408457 0.05249349911176562 0.0044405590939604524
0.018726618725661164 0.04601254993599778 -0.0015911446811239475
0.025186764282866522 0.056089604295350995 -0.003666431211285457
-0.005396156314112812 -0.03062717375895729 -0.0011736570328098861
-0.0013225590888267605 -0.03586612656569496 -0.0006282065395440045
-0.0012275944863002135 -0.031582325874272434 0.007646275762407464
0.0006295550776483039 -0.04030085077875796 -0.010878553460493882
-0.006405129975925269 -0.03193746188575499 0.0007778747742459047
-0.001773968293110245 -0.03983225752212942 0.0035491298264649007
-0.0020854065980844046 -0.03770394388675642 -0.0037393779873124613
-0.002096099125212646 0.0016637517288912464 0.010784703761173369
0.0026496125674930586 0.03954669231251098 0.0005382123892081426
-0.0028397964657998617 0.03516266292518125 0.009840409540014814
0.0007710049740522715 0.0196157561417176 -0.0013194491095416
-0.010990135933937837 0.034942958665033025 -0.011186095174252517
-0.010575857167410791 0.008727806365175672 -0.005889337771219226
-0.006247288013287738 -0.0032325344786841097 -0.003130138236423286
-0.018878110685720723 0.02511560371419264 0.0053742248773848535
-0.010400030055607155 0.06260495462289277 -0.021017387208425147
-0.00522822969052009 0.045125352872074975 -0.019922795177709063
-0.007408107488825047 0.041143582289200106 -0.030539865763872052
-0.003837602811758379 -0.011440726738946633 0.006848395406219626
-0.0049048521844117995 -0.013426471083562413 0.007867433076810185
-0.0037591250160159133 -0.029876696243385105 0.0040810131076069855
-0.0060478259985379534 -0.010571097769145355 0.00811444913285939
-0.006223623463214952 -0.02848376871521016 0.0033282071041508946
-6.861193234820832e-05 -0.028023173383228434 0.0016069470356954699
-0.0013471773855200265 -0.042822368250522366 -0.0035772974746443227
-0.004684163437867323 -0.030357162761152398 -0.011263219966177188
-0.012713757195700337 0.04539397710020953 -0.004139626173610606
-0.011685548495296358 0.059104231288963985 -0.009486062103793628
-0.018000771658762366 0.07625756638560954 -0.009744191476494607
-0.019475409079414228 0.04506885428624437 0.001036967323810969
-0.004707638213935289 -0.039524778538268954 0.01737883715500403
-0.003718726501936808 -0.040787130131846046 0.009809266070376695
-0.00919956405159691 -0.030147428346619615 0.01738246147899356
-0.008200574627153779 -0.02824382019396724 0.00654315220306621
-0.00352213269983927 -0.036640060501031864 0.004935983366369602
-0.0016666559286952485 0.018225484377067093 -0.0010574921913244846
-0.0006290686256631436 0.011494350276174951 0.013368277571860692
-0.004932230371646523 0.004147580835214668 -0.0031469175133657682
-0.002256892250561752 0.030492720307821686 -0.02364729209305271
-0.000991271091657659 0.02035085835682392 -0.022291518712448097
-0.005252477971003836 0.019360629587778167 -0.03606403681087211
-0.0023424046574411616 0.012643414990439512 -0.022709831086774754
-0.0015105870209011086 0.04042599797579023 0.025140530875342137
0.0029860874413116458 0.0343512643462926 0.03596841014677624
0.0030073846864220634 0.02752325045766443 0.035267490618140336
0.0004576199130235872 0.034761446380959106 0.03398891385454191
-0.0010863278315224423 0.03281341766682028 0.02177060723108178
-0.0024500926684503464 0.024054078976087738 0.018009727184364017
-0.0017706595119107165 0.027676487184059274 0.02460780152457036
-0.0014816002400411526 0.031421254057986556 0.01690481190946287
0.0009842551229684703 0.044084099756238955 0.035351903681934
-0.0017326825035812554 0.034048096470403556 0.011086075386339631
-0.00043660148224191275 0.03282914361296152 0.02483379374855492
-0.0037454011201805133 0.03560024631142928 0.017984063885153986
0.007319546845349858 0.01357265803513257 0.021924838688699242
-0.006608828787986829 0.01801374538524998 -0.022187539192211784
-0.00537170250340466 0.01886030643712029 -0.012018464989950682
-0.0034277099654765266 0.01177230098206807 0.01925867436664748
-0.0038299619414981965 -0.014147514264445436 0.01866221182149757
-0.00411557118461198 -0.0017979547737277813 0.019537483107137713
-0.006254294638868687 0.002646256524232341 0.019853664457121854
-0.00032181628315767217 0.02907567789728714 0.01345762598510378
0.005116711971094331 0.03306412142424056 0.019415302861225763
-0.01266048155897463 0.040675338315287086 0.010322080756992216
-0.007927803144626232 0.03344157689902298 0.011924582654423126
0.0009416306063887145 0.03111451056609419 0.01684059895456102
-0.0007581308444836802 0.009057854796569004 0.022323623035961734
-0.009226035810170221 0.0037666399415089715 0.01367097183849906
-0.010926313217281358 0.04320708530809473 0.017967247025652826
-0.0016937700725660598 0.014496546823836172 0.01147017111670716
-0.0002045859194956115 0.009523540310187201 0.01189832042463982
0.0030259958862988686 0.01910250970786912 0.010313149001411172
0.003794682290502636 0.004098875455443362 0.01889553715317576
-0.0025148366822724177 0.014102427301326534 0.016345644236208514
0.00021579941814472232 0.05308983200789151 0.0044791843484626144
0.0016036603863522144 0.05835744334355871 0.009497091122585214
0.00238136689949365 0.05730892085519193 0.011404907317890862
-0.0004177067321683878 0.049890255942338015 0.009493860964058312
-0.0017395860286039918 0.04510043968016065 0.010517994199336014
0.026954926025116815 0.09910228965605646 0.020343992579719476
0.0023144133826827557 0.06727199919937983 0.011928745875575327
0.03144065933126198 0.017705174069086164 0.017442000221107153
0.01037414933319788 0.058080380111663193 0.01520792499213607
0.0036610428393218705 0.021368702522537864 -0.0015718761944590685
-0.001651621358561252 0.017178136004866004 -0.02017080272036613
-0.0004915066128251268 0.006699723517563956 -0.020837203126113965
0.0013547620934345696 0.015283595218505879 -0.006278728905376143
0.00038821137468307484 0.0256111736127495 -0.006163159112456806
-0.0027919849857447423 -0.009305186973622332 -0.01923940538745041
-0.008030028877976842 0.004382044181043947 -0.03174810567677844
-0.009289818621033563 -0.0032588298025715006 -0.031434875370697744
0.0013249609076299291 0.02735001741664822 0.02390519622774775
0.002265734533469342 0.007780599127989063 0.020220016405558698
-0.003947638704203102 0.02816723645892948 0.00893701902914211
-0.002070237466968122 0.01874666260097448 0.008234989334439308
-0.01155475993264605 -0.04380224136839818 -0.018621615738090094
-0.00421986721646316 -0.030665317515478085 -0.014156094582490527
-0.0009296651502440453 -0.0249279603602199 -0.014742258983459025
-0.007187301775861309 -0.04649613633851601 -0.009604510104546717
-0.008696633613453946 -0.04140470171271718 -0.017852521572551624
-0.006623453843155228 -0.016033052146639724 -0.025728729550664842
0.0008721593065200995 -0.012190689219038518 0.015545785330161046
0.010409786034190089 -0.009057525674530104 0.03371564662641289
6.020873047176015e-05 0.017893565719838668 0.020560345237048968
0.00817472096734186 0.0007897977872731488 0.033651200517033464
0.007441900830922428 0.018818598858068317 0.03667847710085802
0.0001323636966004935 0.03592296349939137 0.023455628735157667
-0.0027958322127381264 -0.0075813582170283925 0.0021999134521903303
-0.0041744789576115 -0.04277081418218524 -0.010061700269810115
-0.005421435376279187 -0.015091342652630005 -0.018900486381524938
-0.008674475545287505 -0.02192869964114962 -0.02532379895801998
-0.003838449993910361 -0.008685631970911078 0.01648158363397756
-0.0037276038104860692 -0.0017146485674456795 0.019243561748849815
-0.0012979380375619854 -0.016309858148982417 0.015680601055898837
0.0015643226239057543 0.030362726805033453 0.028464953262140356
-0.0008177795588210594 0.002289246024817546 0.02069687975023785
-0.0036240000979652423 0.01264383096144711 0.023446382281600217
-0.0015695797142539982 0.017006129000032344 0.02296043654141892
-0.006131328136370342 -0.030192314860959548 0.002765923052518935
0.0059322335690446815 0.028830626938505147 0.03721214079518646
0.020319366561967596 0.0850149121725438 0.016521698319130335
-0.007030887520318216 0.06450881543779034 -0.04167776194527201
-0.003494787042385071 0.05624522491938155 -0.03598124075304458
-0.001633906240589325 0.0474523214683217 -0.04150914305775551
-0.0002976669738457146 0.0108924118256237 0.024739412178437746
-0.003040420235933445 0.008721494552226287 0.02330962366127392
-0.00665237040836037 -0.024032447032503908 -0.007020494880136646
-0.004822622439452455 -0.043691553768333204 -0.0032828759772208396
-0.0026101820700082344 0.014700605667011696 0.013644842985343688
0.02143886217986608 -0.01647064967624541 0.026065293136491117
-0.004384185540277125 -0.009182815211730047 0.009098150806451589
0.01736702037539885 0.0005095499042933347 0.02367923451118099
0.021837631186387627 -0.016199765192725635 0.03112725153571639
0.014932902037136413 0.02278957626054814 0.0261822452363733
0.003927144336641331 0.040046439579541515 -0.0084978358776624
0.0034581997626713006 0.02967820055936345 -0.009462254130286039
0.0006122853274131405 0.025983672348182923 -0.023336188235762802
-0.0026733705073700652 0.021759487987046387 -0.02347242042340904
-0.003742050360715876 0.02252670183166076 -0.03839720910907417
-0.0002998406157153342 0.036185108136318624 -0.022737189839439117
0.029657655070796696 0.027287394501762725 -0.014152128023348174
0.02660989044743258 0.015244245873749023 -0.013021209441931754
-0.007966558011022893 0.0007059076139281798 0.011577429523463682
-0.009454710369191044 -0.012138814561862728 0.011974761680008201
0.0008479079984381303 -0.039745521197212995 -0.003698594094557034
0.0032330063066501762 -0.045488312223210974 -0.010446460911052663
0.00026594064249783146 -0.034382845698045165 -0.01043580971270485
-0.0006822487627701455 -0.03846173167963371 -0.025449571729531002
-0.0001429367618040674 -0.01842055588660398 0.019433733925921664
-0.0009096693332628461 0.01808942104305983 0.03007780342088146
-0.0027339767811196632 0.024917226575078787 -0.030261941358515475
-0.008994423922239 -0.012150451982867723 0.001125658972707984
-0.0024700309739823316 -0.025646740638700635 -0.011056820745442593
-0.007583223420836876 -0.005154686127169815 -0.014605680173182204
0.006993461562595445 -0.049364280393287864 0.011297665364848773
0.004547734749956994 -0.03641227392271343 0.011332320908729848
0.0012212574452241806 0.02942162452948636 -0.04736580051942229
-0.004187651935597828 -0.020297895680247948 -6.69614059435677e-05
-0.007223009996057786 -0.022936817971663935 -0.005827143102203747
0.03162349289239281 0.01483079721514376 -0.018901120328678595
-0.0029421929414669193 -0.006297286398151182 -0.0052846736035133774
-0.0020570858212993876 0.0007547943806042304 -0.018272271765534004
0.0015202918447124911 -0.0320791374650763 -0.021552130981800623
0.0021729714886670397 -0.007812792512382316 -0.02885760826426841
-0.0047832193122084605 -0.020459989837307388 -0.02094070732528178
-0.003262423172220873 0.040433816280510765 0.013506833018037671
-0.0009035778439710566 0.03426854818382117 0.025754964544136505
0.027480669235041232 0.040387145008999877 -0.01047227432291231
0.0007269919396344255 0.01861566770916081 -0.03825441061484601
0.005054587514045337 -0.060528200444278285 -0.019049916362831203
0.003982132620464332 -0.06644970848838488 0.0026936346384766655
0.004155336947617157 -0.05277819765692922 -0.003822544730330957
0.0006741051455097165 -0.00325423912859412 -0.03662957425823526
0.004645039797275016 -0.006856365236081113 -0.01630176235875028
0.0006132912660557628 -0.05478095980126686 0.002737827805427166
0.001947916168213931 -0.04880013558699066 -0.01906893998215845
0.0019742871616491324 0.005349719386046608 -0.015776099807489664
-0.0027885905386838424 -0.044699460526120526 -0.012388703178102348
0.0005553724654433946 -0.03640555804521497 0.0093993353699545
0.00373335758938729 -0.04810051186242888 0.009304359865044765
-0.0011098045219037362 0.034635991359047866 0.016249314761889393
0.014587784328858872 0.04637475274157571 0.005222549030879517
0.020410785266061725 0.051066934514163075 0.0061101494876257675
-0.004200784691413303 -0.02273585636304325 -0.004921337392409855
-0.005335598418778824 0.0024280372738505907 0.00250947484449864
-0.0014596149921680397 -0.034803047240169305 -0.004487048063471644
-0.001024902898449071 0.008706184378066173 -0.03709115010336625
0.006666839946167855 -0.04423665135414957 0.023929207060214414
0.0019563375409940137 -0.04907977817954231 0.01818869938915618
0.009951582076235619 -0.05733025416029236 0.023809485866971288
0.005221452234116232 -0.060809765607043924 0.017927285817467307
0.0035885989826685135 -0.02295816339731403 0.015339612807977571
0.004976036567732003 -0.03128864414211574 -0.006118578910710955
-0.0014937095539136866 -0.051106507176689416 -0.0025102744959699516
-0.004291880423722325 0.016724337019429793 0.02148971574635028
-0.002655843761608752 0.028442705838219985 0.01814031164068664
-0.005575578277722796 -0.024164962571534155 0.0031027230130324236
-0.001994940617761389 0.032683057040832186 0.013199350632138757
0.0015249506706951233 0.06157930388965638 0.01350248347201101
0.0066562648116435235 0.03923857029932291 0.018113318774562556
0.0228598372892585 0.03790823939367034 0.017792234615554747
0.002930004057926236 -0.0514914538058575 -0.025837723056469978
0.0028754940942156302 -0.029588406572956638 0.003995308469816076
0.005376983554280795 0.008662971623630866 -0.0015972232548107591
0.0006005552076373526 -0.01840280052171599 0.004039505904607511
0.007120550426108661 -0.02573943586796804 -0.03159170749086105
0.0043756779651610385 -0.013628195260600533 -0.03169610629407246
-0.004027161852611097 -0.035379793668062084 0.0024812410745686875
-0.00920905211891363 -0.03855539427080875 -0.0014976175759819018
-0.000676646947695282 -0.009271264029933533 0.017068905857477425
0.0009007282337537624 0.05517828559112901 -0.06183914782065901
0.0010373584875714185 0.04832554287158658 -0.05509068067914887
-0.005441835900315582 0.06462149187513236 -0.05515872060048511
0.0010776378325467813 -0.02800623905168635 -0.008497122049614194
-0.005185495881579812 0.022686701721228685 -0.03890542466151056
0.0017808786386247883 0.00709802318517142 -0.038730003021528014
-0.007051506489401302 -0.03858379939615035 -0.010947604198297434
-0.01007013034186141 -0.041910983271409144 -0.010660309245605496
-0.0052561323295205265 0.07232948336190026 -0.061734148349022376
-0.008884488682712749 0.07364927016350219 -0.03570517576388701
-0.003898390215640262 0.032860971237424784 -0.03896247524632237
0.02651804205749061 -0.04890073002416323 -0.03880737720349493
0.030616262666479443 -0.0009688670700647079 -0.022029477206944512
0.028215246119564476 -0.08705198419975077 -0.03805434889969037
0.00972073858078222 0.04401570285089885 0.015973935886552926
0.03297089365919108 -0.013981816537122212 -0.021665409427981685
0.03020586320015138 -0.00045309340104789396 -0.029670958100769286
0.007226216607145216 0.03356096231584801 0.016855147518332465
-0.0015715161671929728 0.039568698030179185 6.884035900861125e-05
-0.00399678836516244 -0.016682849158916945 0.005619529086048222
-0.006945795836867934 -0.01003218501425347 0.009905025027911775
0.027245385082624037 0.00048023597335006594 -0.02032773099206136
-0.006381964513476733 -0.029136811295810867 0.014506261394274538
0.0012391891982501697 -0.03587446378252259 -0.005715825296915495
0.012251235339422335 0.0496059769646255 0.01774202173387587
0.014498647448871284 -0.015438175759813624 0.025160574115969184
0.001999824568102537 -0.04973356724907926 -0.004244245372786686
-0.0053766825831684795 -0.031281696815561186 0.0014711614398862244
0.0008819737558850321 0.02018352593490692 0.029831788372322414
-0.011507475471467755 -0.015393169030092553 -0.023567846977325883
0.015609347116094342 0.0006866301021197842 0.023344920570023426
0.004872967831557776 -0.024046559390943037 -0.00924084625931607
0.005642135526665074 0.01084096064486355 -0.010267468138944661
-0.0004772489520088897 0.031738357855670134 -0.039943915968419855
0.010437490203846381 -0.033648245032217805 0.02941417878911171
0.0032025049555196 0.0034584980527260964 -0.011380556076477262
0.017756075929527777 -0.05869009615470427 0.03405347099364278
0.03561089846719419 -0.03890213104133071 -0.021536178308720417
-0.007484210211554801 -0.022459164893840238 0.00842246915285786
0.0004949979099927255 0.034921663342612264 0.005707963502877002
-0.018515075911812676 0.06341811647943967 -0.0041023967173468
0.004210435821570323 0.004737703017199904 0.030830583762622456
-0.005852165305570396 -0.02240558539812631 0.007262568246703639
-0.005631368441006471 -0.03792614779259829 -0.00028855461338866565
0.015672618909021305 0.018740790985410136 0.016333126915513852
-0.014923836705341167 0.012525779965338091 0.005194719408467329
-0.015410891625554837 0.028276967738181353 -6.850342032423836e-05
0.007931281093981842 -0.021299834554470744 0.030718044511602625
-0.004312359597843466 0.004515320499020637 -0.02948168031178302
-0.00930011436314393 -0.021837649750538347 0.0057324810111146355
-0.004618198999406862 0.028748918333907966 -0.0365345184812303
0.010903867321065984 0.022922978528438106 0.02012052279072283
-0.013881226278874116 0.006153549539304361 0.011891916045777369
-0.008791143080962703 -0.005606849862863516 0.010046706311649849
-0.011296261405625715 -0.016960826882693875 0.015252868846221233
-0.005472718294698447 0.0456964945242457 -0.0476504990309978
-0.0038776735623646842 0.009406117179181758 0.018557149004864795
0.017134512860085133 0.008174757505299796 0.011891949284610797
-0.005063386102066738 -0.02600099203333991 0.006894963865264005
0.002949707375451765 0.02369425039029935 -0.011644513404793791
0.002427401539171531 0.01584441672529152 -0.010766311272556959
-0.00013961782778112056 -0.057346943723609864 -0.011661480142681153
0.01854021232344842 -0.038401636046638744 -0.028653514526429332
-0.01567078894656966 -0.019435578492430272 -0.021049804972585993
0.006805541126657144 -0.00256639541983762 -0.029724331622457505
0.0036376239625407324 0.00958941981597284 -0.0026442269222967064
-0.001859826592706423 -0.02614269150531561 -0.0037956268511456777
0.0002998130519671675 0.025452268628011913 0.011062952635922423
-0.0008594107994012177 -0.014019123764402761 0.008820801649738017
0.009168661479602266 0.01674520868945378 -0.010613702210553922
0.0055487299839689945 0.030252708068523527 -0.010150503488406765
0.00041229201390311876 0.0296898885704676 -0.021885400215190077
-0.0043368146995540835 0.01796057505542202 0.014587160403976781
0.010719073108778761 0.012209037428513415 0.00957313919803161
-0.00691412344538987 0.0047960918400012115 0.018470517145980456
-0.010683636782024811 -0.03880160247848544 -0.018267528116455538
-0.016196471208771563 -0.08603576092396481 0.007097639682456194
-0.033750307993849524 -0.03892311540683903 0.002175934059960842
0.02030667760053737 -0.02349009208580551 -0.021528736400137822
0.0002844309822178297 -0.00519929763314734 -0.008054531962979672
0.008453624596458952 -0.05071348967794807 -0.00357823575876514