# vtk DataFile Version 2.0
Really cool data
ASCII
DATASET UNSTRUCTURED_GRID
POINTS 584 double
-1.0 0.0 0.0
-0.9600374798207896 -0.027590413451835553 0.04
-0.9589620457797374 -0.028177574718636023 0.0
-0.9553815213922792 0.019675326217199102 0.04
0.6719637381218919 0.02110482676547816 0.0
0.6414775595248179 0.020020515529780993 0.04
0.6571281419012174 0.06 0.0
0.6240641012293764 0.022292119262118645 0.0
0.687851041884645 0.021313940245698455 0.04
0.7030120427199962 0.06 0.04
0.657128141901218 0.06 0.04
0.7030120427199952 0.06 0.0
0.6885310613992013 -0.0196061899732657 0.0
0.6720046167250797 -0.020579604775701428 0.04
0.6407079554435648 -0.019738458112036637 0.0
0.7171469290115033 0.021165332718839136 0.0
-0.7921016077200962 -0.06 0.04
-0.7604373514312079 -0.019298436119384588 0.0
-0.7479973317145423 -0.06 0.04
-0.7479973317145417 -0.06 0.0
0.7030120427199962 -0.06 0.0
0.7030120427199952 -0.06 0.04
0.6571281419012174 -0.06 0.04
0.7479973317145417 -0.06 0.04
0.7325903506195701 -0.020274227246539274 0.0
0.7176321617908783 -0.019839353713154383 0.04
0.7604373514312079 -0.019298436119384588 0.04
-0.8488906624897727 0.019856366527450334 0.04000000000000001
-0.8052789150181434 -0.019306901564895652 0.0
-0.805541091654972 0.020469431563422978 0.04000000000000001
-0.8203038938742353 -0.020636147377884773 0.04
0.897529295217204 0.022569895749215793 0.0
0.8488906624897727 0.019856366527450334 0.0
0.8569454102823642 0.029774901726562965 0.04
0.8777357995360431 0.06 0.0
0.9553815213922792 0.019675326217199102 0.0
0.95349853104827 0.02147987272312249 0.04
0.9103536180674616 -0.021283841161765512 0.0
-0.5450807564691462 -0.01715484187473429 0.04000000000000001
-0.5372746904547943 0.02439300391790418 0.04
-0.49049502097572617 0.000359712426279548 0.04000000000000001
-0.5409244119327052 -0.005150142234760652 0.0
-0.48901428549955095 -0.02776609156780287 0.019771763033692314
-0.4642419910175897 -0.06 0.04
-0.43891524330526177 8.673617379884035e-17 0.04000000000000001
0.7479973317145423 -0.06 0.0
0.9600486361512215 0.06 0.04
1.0 0.06 0.04
1.0 0.06 0.0
0.9192992165657531 0.06 0.0
0.7479973317145423 0.06 0.04
0.7309057796957548 0.02177174945441851 0.039999999999999994
0.7479973317145417 0.06 0.0
0.7613659684934695 0.020945326906433456 0.0
0.7736855084518748 0.020914979208800512 0.04
-0.8570647961856006 -0.015388027432140593 0.0
-0.8569454102823642 0.029774901726562965 0.0
-0.8649535140731797 -0.02016838668923704 0.039999999999999994
-0.1726925416005594 -1.214306433183765e-16 0.039999999999999994
-0.22806385632140147 1.0755285551056204e-16 0.039999999999999994
-0.2006519843784229 0.06 0.0
-0.22806385632140147 -1.1796119636642288e-16 0.0
0.438611990705585 -5.252150912499892e-05 0.04
0.41358849559293387 -0.06 0.04
0.4135884955929341 -0.06 0.0
0.4642419910175897 -0.06 0.0
0.4782715374234063 0.0302584611690398 0.019894876072988572
0.513903464641242 0.06 0.0
0.49049502097572617 0.000359712426279548 0.0
0.46424199101758934 0.06 0.0
0.46424199101758934 -0.06 0.04
-0.8164681441220105 0.022269284396602723 0.0
0.48912437490067595 -0.00041996788971368666 0.04
0.4642419910175897 0.06 0.04
-0.8353421249080566 0.06 0.04
0.8649535140731797 -0.02016838668923704 0.0
0.8973163514988121 0.02144006532192878 0.04
0.5625923446839085 0.06 0.04
0.6103276788742331 0.06 0.0
0.5943416245309461 0.018901239582525348 0.04
0.5790918012159274 0.021628695864523574 0.0
-0.593631917725493 -0.01946781888421301 0.04
-0.6103276788742336 -0.06 0.04
-0.6407079554435648 -0.019738458112036637 0.039999999999999994
-0.6264545933043166 -0.021459100211208025 0.0
-0.6103276788742331 -0.06 0.0
-0.6103276788742336 0.06 0.0
-0.6240641012293764 0.022292119262118645 0.04
-0.6414775595248179 0.020020515529780993 0.0
-0.5943416245309461 0.018901239582525348 0.0
-0.5790918012159274 0.021628695864523574 0.04000000000000001
-0.5625923446839077 0.06 0.04
-0.6103276788742331 0.06 0.04
-0.5625923446839085 0.06 0.0
-0.7325903506195701 -0.020274227246539274 0.039999999999999994
-0.7176321617908783 -0.019839353713154383 0.0
-0.7309057796957548 0.02177174945441851 0.0
-0.7736855084518748 0.020914979208800512 0.0
-0.7613659684934695 0.020945326906433456 0.04
-0.6571281419012174 0.06 0.04
-0.6719637381218919 0.02110482676547816 0.039999999999999994
-0.7030120427199952 0.06 0.04
-0.687851041884645 0.021313940245698455 0.0
-0.029521960903255984 -0.06 0.04
-0.05860957814939871 -6.938893903907228e-17 0.039999999999999994
-0.05860957814939863 5.898059818321144e-17 0.0
-0.08769719539554167 -0.06 0.0
-0.08769719539554144 -0.06 0.04
-0.2823507532564078 -5.204170427930421e-17 0.04
-0.25547572826437986 0.06 0.04
-0.25547572826438003 0.06 0.0
0.38751191920162714 6.938893903907228e-18 0.0
0.3352618020299945 -3.469446951953614e-18 0.0
0.36192316205531716 0.06 0.04
0.3619231620553172 0.06 0.0
-0.36192316205531716 0.06 0.0
-0.335244821032008 -1.1796296425746478e-06 0.0
-0.3352618020299945 -3.469446951953614e-18 0.039999999999999994
-0.38745316199969926 -7.894682722445895e-06 0.0
-0.3619231620553172 0.06 0.04
-0.3092257782484355 0.06 0.04
0.28235075325640757 5.551115123125783e-17 0.039999999999999994
0.30922577824843556 -0.06 0.0
0.335244821032008 -1.1796296425746478e-06 0.04
0.3092257782484355 -0.06 0.04
0.36192316205531716 -0.06 0.0
0.38745316199969926 -7.894682722445895e-06 0.04
0.3092257782484355 0.06 0.0
-0.38751191920162714 6.938893903907228e-18 0.04
-0.28235075325640757 5.551115123125783e-17 0.0
-0.30922577824843556 0.06 0.0
0.6103276788742336 -0.06 0.0
0.593631917725493 -0.01946781888421301 0.0
0.6264545933043166 -0.021459100211208025 0.04
0.4889627886584896 -0.027603176797077415 0.020155725176282127
0.583287522480325 -0.023728770665855194 0.039999999999999994
0.5450807564691462 -0.01715484187473429 0.0
0.5409244119327052 -0.005150142234760652 0.04
-0.48912437490067595 -0.00041996788971368666 0.0
0.3619231620553172 -0.06 0.04
-0.657128141901218 0.06 0.0
0.9600374798207896 -0.027590413451835553 0.0
1.0 0.0 0.04
0.9589620457797374 -0.028177574718636023 0.04
0.5625923446839077 -0.06 0.04
0.5625923446839085 -0.06 0.0
0.7766984080639845 -0.02052537972713625 0.0
-0.438611990705585 -5.252150912499892e-05 0.0
-0.583287522480325 -0.023728770665855194 0.0
-0.9600486361512215 0.06 0.0
-0.95349853104827 0.02147987272312249 0.0
-0.9192992165657539 0.06 0.0
-0.9192992165657531 0.06 0.04
-1.0 0.06 0.0
-0.14473309882269625 -0.06 0.04
-0.14473309882269605 -0.06 0.0
-0.11621514710911887 -1.214306433183765e-16 0.0
-0.17269254160055947 1.1796119636642288e-16 0.0
-0.14473309882269625 0.06 0.0
-0.11621514710911884 1.214306433183765e-16 0.039999999999999994
-0.8353421249080566 -0.06 0.0
-0.8353421249080575 -0.06 0.04
-0.8973163514988121 0.02144006532192878 0.0
-0.897529295217204 0.022569895749215793 0.04
0.11621514710911887 -1.214306433183765e-16 0.039999999999999994
0.05860957814939871 -6.938893903907228e-17 0.0
0.05860957814939863 5.898059818321144e-17 0.039999999999999994
0.08769719539554144 0.06 0.04
0.6103276788742336 0.06 0.04
0.5139034646412424 -0.06 0.0
0.9096368506350345 -0.020963842829632554 0.04
0.805541091654972 0.020469431563422978 0.0
0.8052789150181434 -0.019306901564895652 0.04
0.8203038938742353 -0.020636147377884773 0.0
0.08769719539554144 -0.06 0.0
0.08769719539554167 -0.06 0.04
0.9192992165657531 -0.06 0.04
0.8164681441220105 0.022269284396602723 0.039999999999999994
-0.9103536180674616 -0.021283841161765512 0.04000000000000001
-0.8777357995360431 -0.06 0.0
-0.9096368506350345 -0.020963842829632554 0.0
0.8570647961856006 -0.015388027432140593 0.04
0.7921016077200956 -0.06 0.04
0.8353421249080566 -0.06 0.04
0.7921016077200962 -0.06 0.0
0.4135884955929341 0.06 0.04
0.43891524330526177 8.673617379884035e-17 0.0
-0.7921016077200956 -0.06 0.0
-0.08769719539554144 0.06 0.0
0.14473309882269605 0.06 0.0
0.1726925416005594 -1.214306433183765e-16 0.0
0.11621514710911884 1.214306433183765e-16 0.0
-0.029521960903255984 0.06 0.0
0.0 0.0 0.0
0.17269254160055947 1.1796119636642288e-16 0.04
0.14473309882269625 0.06 0.04
0.0 0.0 0.04
0.2006519843784229 0.06 0.04
0.22806385632140147 -1.1796119636642288e-16 0.04
0.22806385632140147 1.0755285551056204e-16 0.0
-0.6720046167250797 -0.020579604775701428 0.0
-0.7030120427199962 -0.06 0.04
-0.7030120427199952 -0.06 0.0
0.25547572826438003 0.06 0.04
0.30922577824843556 0.06 0.04
0.25547572826437986 0.06 0.0
-0.02952196090325599 0.06 0.04
0.2006519843784232 -0.06 0.04
0.14473309882269605 -0.06 0.04
0.2006519843784229 -0.06 0.0
0.14473309882269625 -0.06 0.0
0.2823507532564078 -5.204170427930421e-17 0.0
-0.36192316205531716 -0.06 0.04
-0.41358849559293387 -0.06 0.0
0.5372746904547943 0.02439300391790418 0.0
0.5139034646412424 0.06 0.04
-0.5139034646412424 -0.06 0.04
0.41358849559293387 0.06 0.0
-0.7171469290115033 0.021165332718839136 0.04
-0.7479973317145417 0.06 0.04
-0.7030120427199962 0.06 0.0
0.08769719539554167 0.06 0.0
0.029521960903255984 -0.06 0.0
-0.02952196090325599 -0.06 0.0
0.02952196090325599 -0.06 0.04
0.02952196090325599 0.06 0.0
0.029521960903255984 0.06 0.04
-0.47805793986482265 0.03008719549728311 0.01940109733029794
-0.4642419910175897 0.06 0.0
0.6103276788742331 -0.06 0.04
1.0 -0.06 0.04
0.9600486361512205 -0.06 0.04
0.9600486361512215 -0.06 0.0
-0.3092257782484355 -0.06 0.0
0.877735799536044 -0.06 0.0
0.8777357995360431 -0.06 0.04
-0.41358849559293387 0.06 0.04
-0.4135884955929341 0.06 0.0
1.0 -0.06 0.0
1.0 0.0 0.0
-0.14473309882269605 0.06 0.04
-1.0 -0.06 0.0
-0.9600486361512215 -0.06 0.04
-1.0 -0.06 0.04
-0.7921016077200962 0.06 0.0
-0.9192992165657531 -0.06 0.0
-0.9600486361512205 -0.06 0.0
-0.7921016077200956 0.06 0.04
-0.7766984080639845 -0.02052537972713625 0.04
-0.5625923446839085 -0.06 0.04
-0.5625923446839077 -0.06 0.0
-0.877735799536044 -0.06 0.04
0.7921016077200962 0.06 0.04
-0.3619231620553172 -0.06 0.0
-0.7479973317145423 0.06 0.0
-0.8777357995360431 0.06 0.04
-0.4135884955929341 -0.06 0.04
-0.46424199101758934 -0.06 0.0
0.513903464641242 -0.06 0.04
-1.0 0.0 0.04
-0.877735799536044 0.06 0.0
-0.30922577824843556 -0.06 0.04
[...]
POINT_DATA 584
VECTORS displacement double
-0.004541253265375687 0.007867618156639715 0.0009177155615082062
-0.010065584040266577 0.0009024431007332418 -0.0011205049110248493
-0.005834039810872124 -0.00041111302857238014 -0.0001996559135743508
-0.0015700879201261209 -0.008908642911664228 0.0005173256508328315
0.014688243049402772 -0.018713154424920143 -0.0023464384143148122
-0.01869128335698967 0.01929550357159936 0.009843959224213142
-0.012296588621786937 -0.0687522841084139 -0.019059698607170165
-0.01001511004078649 0.010302358443882161 -0.00604527479014925
0.025400092007033352 -0.007007037087820717 0.006440014988810342
-0.0013910826290451732 0.0010607722579600897 -0.0030713573375863207
0.004702668954404222 -0.15544809675298726 0.021371490719201195
0.00012686590365143237 -0.003932595122217067 -0.008120186302048395
0.010481850354658359 0.00024965182634004916 0.001630131947728928
-0.0002793181354839008 0.03458394296753318 0.0046402036359902725
0.001847078755213547 0.023966637876653887 0.0021794881404859304
0.011882057956495336 0.009430766484053787 0.0008009843004566525
-0.0046216378376248155 0.011143873323827701 0.006048929309219297
0.002159678925762379 -0.010948804522983562 0.0012826141308014594
-0.0022728253785062945 -0.03986050228393214 0.0008430157135424316
-0.005450641761501798 -0.020159240343318147 -0.006871312975365228
-0.009832150727965576 -0.019909757725705635 0.004222004737509273
-0.014548786128098012 -0.0294898263422268 0.0025915808323926435
-0.0010738127355125271 0.02089040710049927 0.0016711973909537322
0.01691906426484083 -0.0014535163768092038 0.00046905421941749036
0.0031733971598977557 -0.00936813774630995 0.008215672173347833
0.00657500436284821 -0.05011566712725504 -0.0014719783539966246
-0.012395040820612255 0.0582003141828709 -0.002074606245871486
0.008464082317110527 -0.006544939007286053 0.003615671929080355
-0.0010985525855675975 0.0020570337675828165 -0.000502922943926539
0.009973364896769372 -0.0001861214777553029 -0.0002786019564251386
-0.0022406339902695275 0.003991154165229169 0.002758093821895091
-0.0014032708251549705 -0.00087297799028528 0.0013182332300671119
-0.005284310626381726 -0.0003631355749008551 -0.0015753919348143112
-0.0012159503823156452 -0.008234062035799255 0.0037115036266826447
0.00022533743690795335 -0.009577808730649598 0.005655018944386262
-0.007894804134381058 0.004081144352168733 -0.00016214901844826025
0.0006454621417368397 0.011015498286654513 -0.005237951253110025
0.0012293628489150907 -0.0006409063418762915 -0.0006836259881776207
0.035442342394608035 0.016317607465946567 0.0030430758683205714
-0.008037924940996958 0.020239913909039845 0.00472479026385753
0.0023282902550665605 0.021432485059358557 -0.009614118492256268
0.014559991816833255 0.011160135481521527 -0.00266065973624293
-0.042558063585688144 0.009034731543696911 -0.005826140184531314
-0.014893568401395869 0.04762964270489832 -0.005091468511985555
-0.008253578981623481 -0.08736366493452467 -0.0021387049422059707
-0.0010114611366864954 0.005341320167795653 -2.087899993661603e-05
0.007747382564043551 0.011350252576788747 -0.006213920530214944
0.008555036373355003 0.005235234715367573 -0.007873094206143998
0.0002032767611438501 -0.002006260726811612 -0.00928569413757708
-0.001848297392184235 0.011073677987207303 -0.00203626486844977
0.03250527520507983 -0.03026950009290376 0.0018459606144217004
-0.008927839298249987 0.04492394020268574 0.0029468244862458186
0.028036117302458086 -0.012839043788536007 -0.007149495367199287
0.007668286031336023 -0.004129720349703279 -0.0023073915415376387
0.013322303644924802 -0.0208252883441373 0.0049516481629620695
-0.0015734186893101782 0.0022539533504904023 0.0004248750858499863
0.006913643357341706 -0.004408937131779905 -0.0012823206997016204
-0.0005099502030902266 0.010060936614251784 0.0038938864292875717
0.00021273171364716143 -0.053556779308481225 -0.004007706902911652
-0.003847466928587699 0.11664062084832977 -0.012386923982600965
0.016500600733662146 -0.02637657293648661 -0.009878107953050948
0.001046868129805059 0.0709639978378013 0.015902727806655224
0.006705710369882364 -0.03177271317138439 -0.0048762736466077435
-0.010330342919773756 0.008889004169922244 0.0037944031807989474
-0.008799569182508517 0.0057989606952931014 -0.0024880435129190992
0.010128172939504026 -0.0017467555432015532 -0.008430988157621397
-0.00598675317132319 0.01750421051997718 -0.00282362838283058
-0.015360752563838136 0.009382109144934439 -0.005490431016879886
-0.0008108981097466828 0.0066228732099469926 0.003304507727481828
-0.007400647707549535 0.01371906895445078 -0.006762268799349507
0.005134889667570108 0.0006468986239774506 -0.005123352643797703
0.006396638474069918 -0.0015721597581364582 -0.00013137109528813302
0.0027586559052681895 0.0025322798586985672 -0.011498866044598528
-0.0036120156067955965 0.05183057023534739 -0.015841583858197242
0.007271266597435149 -0.007991124902617056 0.00046128560530478673
0.00203505334375869 0.0070166685805325086 0.0010267727562933973
0.00912783241029224 -0.004591382621540788 -0.0002755746938440498
-0.01908105912660849 -0.043300397944747424 0.013783026500788383
-0.018839163431247547 0.030735752380967176 -0.010353001190473747
0.0008629682521809889 0.011247250249922586 -0.0022140619210869452
0.005697630040691806 -0.001153424533997746 -0.003112629662603509
0.0014078478657896301 0.026020229425167893 0.013709245490802923
-0.009547528923862219 0.03311191250956808 0.006941269946855631
-0.009353225654062157 0.011301818587354791 0.001293439744689003
0.0008756874866687422 0.006781973152125276 -0.0026993616457228874
-0.0045031007689732136 0.014332261173236207 0.005773775885349911
-0.02089586645189053 -0.02041017015694099 0.010042526805170197
-0.02116999234592554 -0.025883274379867035 0.0055373221033427535
-0.012915138757995244 0.0013151175769374674 0.004963773260741076
-0.005149970330743824 -0.014734214598181835 -0.0029240859972554274
-0.0039058259484198404 -0.03888217811141924 0.012196574992237665
-0.022027995194889943 -0.0337978795111341 0.016704563542483192
-0.021241640409647215 -0.030807865862972888 0.006920739999090682
-0.028483264223448334 -0.018362111151578934 0.0010608371552587059
-0.011487482934313028 0.00484923875461089 -0.008047898861514224
-0.009454755005634778 0.0012968920774116006 0.0006314751341777367
0.005127450229292804 0.0024696382279286986 0.00017230570050282424
0.006472384750214829 0.00140288380111918 0.00036408287186142556
0.0036863146949812965 0.013415382300668693 -0.006827158751681393
-0.013790063097047922 0.053560960319833685 -0.001682309846560739
-0.013053402460786009 -0.0062122809563281796 -0.010481482894422408
-0.0005202367570233983 0.06298911543938744 -0.009810190167644027
0.002693775010977506 -0.003891991905235755 0.008076679583259729
-0.011274036941367709 0.017551638490614255 -0.0010609515140930254
0.0063800658173944 0.03121764268222793 0.0034734573473946197
0.010181422165236582 0.019045383537690194 0.002770118708225884
0.007062659496419352 -0.0326928083243251 0.0015958536452075212
0.028877692071738025 -0.05399009278178116 0.007252781920828684
0.009280933020509599 -0.06506230258850765 -0.002237707937651512
-0.054416593303919174 -0.0009870963538043452 0.00676681092484935
-0.061398190142428644 -0.004530961722942789 -0.006202441658265877
0.002586508229829991 0.014029294447950577 -0.002355503792059361
-0.007211241047855848 0.0006738737672710251 -0.0023382766441982384
0.0038495808991293057 -0.041246070692922195 0.015530040525487015
-0.0005098555211124222 -0.02419640819197834 0.008489720711535583
0.023038833631847624 -0.0867632736021055 -0.006211102644546847
-0.0038584784035187564 -0.040415706698647524 -0.006468983813779555
0.021110613738627364 -0.05979201427774985 0.01623394780439548
-6.674010320491621e-05 0.06917053473100637 0.011995383746527566
0.05211081356458468 -0.17272752049906717 0.04940605334862738
0.019135175448519958 0.09265393374798485 -0.027857882009279474
-0.007227473022756386 -0.008583244590931322 -0.0033581259461804157
-0.007371721604481337 0.01597525220013863 -0.0017703948555662075
-0.002444781284491893 0.0013905364043580648 0.006237997563725657
-0.00426940737253307 0.03214386721752741 0.011292424636612858
-0.0018499535188946827 0.00788050179314124 -0.000700836982919851
0.0046645434725691255 0.017755365411866158 0.006070200149330298
0.00019466791281877322 0.0061362599172847835 0.004327680872965451
-0.0032229236090021308 0.11525657761698102 0.012496661336680703
0.010633186840781433 -0.045326932043417235 -0.0005421950890368231
-0.009687332391090823 0.05315596381118567 -0.005573770897899251
0.02016937560425619 -0.005832450782687256 0.005532256805671066
-0.003059382339878334 -0.01627614782750907 0.0015706271125160217
-0.0065652736533111855 0.04335882911194952 8.169859153081354e-05
0.0172361277624647 -0.004743851081825942 -0.004519280172342842
0.003247482236416673 -0.031123782733201637 -0.0004080728984193328
-0.005327272377719132 0.01036488977056398 0.0017782408224852274
0.0018004037642402302 0.013619390034651149 -0.002644823786471407
0.008150187772033695 0.02724880034540179 -0.0015269587129379959
0.0016360646800279949 0.011341976356286127 0.0039552981482403595
-0.011649716709936206 0.024759097333049318 -0.005027386276722128
0.0029074353515050637 -0.012989186170638949 -0.00572701312152692
-0.012847428397162445 0.0007901615620066679 -0.007347957800079785
0.0030382986424632628 -0.025492490499707567 -0.0035146689894408295
-0.011182512857648931 0.018480281123932248 0.003562265209163941
-0.005595504266876396 0.0136348358269842 -0.0022044419116073973
0.0011703361566470895 0.012365966863938777 0.008262747250561591
-0.0035072956781061404 -0.054627255746586084 -0.0003717670232396096
0.004369688514626376 0.011765144630352822 -0.004691764111452693
0.002260255495806621 0.0017970499272983 0.002512235236418701
-0.0009359458145499523 -0.004266316395337559 -0.001525009120022061
-0.001337913014975802 -0.0065648656148822645 0.0028449225411624145
-0.0038911900836119187 -0.011744664734356564 0.0028596528691038096
0.007954078131495223 0.008509014861520597 0.0007745419846099177
0.04290018946722175 0.08369958166520229 0.022599695420992535
0.017745443998014615 0.05423995163110609 0.005625362672800837
0.01324773314525233 0.007799928988908361 -0.0005662588574488872
0.0036019856342077087 -0.040362002942025466 -0.0016147283690120583
-0.01604713111454287 0.03635545105696257 -0.0014853186288114448
-0.004718822857567318 0.01846548808343469 0.002092831530931705
-0.0009609974179009971 -0.0020331722335326418 0.0018731254587709076
-0.00012496598670604092 -0.004179320600783269 0.002552614838271771
0.0031003728600144786 -0.0017301797344003369 -0.0020098895164858185
0.0032629710085017227 -0.006058082943378842 0.006063677724155107
-0.0015820435460450334 0.007664006675399862 0.00885881977991589
-0.0005483784357196231 0.04014835581717775 -0.0012746776626782043
-0.010993664848333456 0.05993527988047157 -2.2740645025451944e-05
-0.017001434227321543 -0.08079088962826148 0.021651817716085073
-0.033513336622624366 0.0512268804418337 -0.008487329823383521
0.005155784977273617 -0.018041869554304743 -0.013355557597247053
0.0034340795400181596 -0.006304034405656921 -0.0017705024101407722
-0.0006736480904513702 -0.0013184730709622499 0.0007242955831762046
0.0035735781908957757 -0.001435724717873947 0.0028099238796658937
-0.007032473062685865 -0.0012835321225624218 0.00318429639430309
-0.02232035805577828 -0.02254328353718323 -0.002607054183793496
-0.001118800372456079 -0.05016352478939683 -0.0024389493712152527
-0.01786502679857853 0.0175179958549884 -0.0011015590966823362
0.0005553963578140378 -0.014279811017996684 0.0042673666724208125
-0.00511237133431084 0.012193377409074701 0.002810393251504206
0.0014822232620865462 0.007382844776911004 0.003882613859738434
-0.0041983780582955915 0.005085842402894845 0.0010323743899478997
0.007069354424248023 0.014630833164831677 0.002330993186874631
-0.012327480408776655 -0.037281485870442194 0.009745640539910453
-0.01372626405423928 0.008534761888977935 0.003469409627913028
-0.011977307801203013 -0.008826142108468544 -0.008240337592374214
0.018766686849851347 -0.00687899474117073 0.0021861930093309834
0.0043225229448574055 -0.016521818938624474 0.0025273622566627145
-0.003218897960092735 0.007329353917586786 0.0022805972055836483
-0.005079932150790062 -0.05080415588734871 -0.0048060420655085855
0.029408802347424313 0.001441778998981782 0.008602552275399978
0.00900925887607536 -0.021931194695537393 0.0010117793401512218
0.0021398984165570422 0.006567947537172455 0.002138030220550894
0.013546261149453431 0.03197433732112445 0.0022525286040076435
0.006219705180032459 -0.03866266088038165 -0.003011163353105683
0.010031077508638521 -0.03942647918345335 0.0016095960963079014
0.020557871139365344 -0.006726920159707944 0.0038104982532216176
-0.0005879045026931202 -0.059634710115847776 -0.006169759256193286
-0.006856062444709184 0.03060200877171989 -0.008061498316998381
0.00291687798180177 0.026387770584042458 -0.009935525027949291
0.0012798228298154502 0.017571816495703843 0.002753312317546186
0.0012464584396187908 -0.015946949818332345 -0.001066135612672336
-0.013011416521639533 -0.00033095880940795647 -0.006114505908958531
-0.007662692292997247 0.002416805598045727 -0.0034015171781878145
0.00103190753668972 0.00779593777384988 -0.005762590653019998
-0.006979268506656689 0.008090447112037238 -0.001019317500215499
0.008812831697680813 0.0047363060550178705 0.0003545243209679216
0.00661198093032778 0.07764095065537628 -0.02456425108380961
0.014817147181515037 -0.016404829074241508 -0.006223354019166396
-0.02675567504354921 0.06701446598020785 0.02726370401211989
0.0010849167844032984 -0.00601485061137834 -0.006554262764920558
-0.02973516223115113 0.03617096038205863 -0.005719613541044399
-0.004859011161356325 -0.004128838867617429 -0.00018068736973827153
-0.05261623245178364 -0.030895905079201254 0.0039189663355367116
0.01647182455501459 -0.00010773327003130874 0.00753548448259476
-0.006853839874690314 0.004353031857523081 -0.005076178429268828
-0.02543603406759405 0.013092628453015443 0.0034440604653453804
-0.007058462147977629 -0.12767555260554125 -0.03579328647538961
0.008184565387131384 0.001464673133793211 0.004067632971104866
0.009533231809936342 -0.007381457163576921 -0.011043625506181997
0.025230792286308795 0.019369096969592346 -0.010039319490813315
0.011374996340389897 0.01886649895096125 -0.004595203953884358
0.013351834344153851 -0.04688917981113109 0.007266414391261727
0.012898517431731402 -0.00898765918831093 0.0012805366787641546
-0.014384230567854085 0.01151773443055886 -0.001801905728435785
0.03484788871477992 -0.004853243383973639 -0.008066276137741418
-0.02934174831560326 0.021508834314236724 -0.00534230515013242
-0.04623310789418674 0.028771182850752405 -0.011343963265737016
0.022937705767179142 0.029757030712004327 -0.0027891909850987994
0.003455785127113495 0.02279100238383436 -0.010935841484877546
0.027202302169852415 -0.01609828725081367 -0.0030017095455405537
0.018517808771133203 -0.000997275065954728 -0.007245967735741557
0.000518585331486017 0.008883859596481242 -0.013737674159364001
0.005297114156548651 -0.00696003197891571 0.0016104809674555248
0.012473266494563713 0.08966790404501956 0.0036711255496290522
-0.011675486818528202 -0.002123966607246904 -0.0010347977861568435
-0.021643363468979243 -0.008129097011807524 0.0014818639577546082
-0.04146597928146973 -0.007944964130875235 0.016373389840889586
-0.04883259548012188 -0.015510003577834346 -0.011707243408643892
0.018728903650137286 -0.00223112171704305 -0.0034386103117954626
-0.011582967852920664 0.0015979527880462024 -0.0017761737269706762
-0.03477532779935549 0.07703023692374893 -0.037878415271466334
0.012637036084233918 -0.016251608067900405 -0.0055249987381281625
0.005324697040589424 -0.005073902678698156 -0.001252965993640827
0.011126485837989725 -0.03448199580630955 -0.008103781833082071
0.010062689650689769 -0.0019274629848583474 0.0002480840883473491
0.0024008743881492912 0.005359131344236836 0.004600076304547722
0.007595660956575436 -0.003543296504092623 0.0003402767336133433
0.017223807977658802 0.0018355195031019918 -0.005371643961461721
0.004837484323096489 -0.011909840474215725 -0.0016057952558402458
-0.0014948634078998048 0.07037408661631703 0.019114122948048297
-0.003182587459525987 0.03535953148803466 0.005433810612261268
0.00012303576920420182 0.015044514316552966 0.004986945536599514
0.019365783802508616 0.013843652641228162 0.004817379393857973
-0.03567897152883238 -0.02213580534481801 0.004264939664366519
0.01466679786658079 0.008265927875118179 -0.006008464229151966
0.005168014912476989 -0.01780476533949008 0.005097431314379596
0.032908080236683734 0.003941561928312137 0.009873414658540644
-0.01857783439319859 0.009474544142273741 0.008390513224718734
-0.005437867835514281 -0.04524153756610039 -0.011271778328237243
-0.008191578955960907 0.012111733870651373 -0.004187511358924212
0.0027059861742420384 -0.010829558213640861 0.0018085215654668045
-0.030282839434506062 0.15435788765733066 0.03327237893498587
0.047902550559840947 -0.07728946510626317 -0.016075946261680785
0.015091745375413265 -0.11095992817853402 0.04825448006603466
-0.01229021410733633 -0.026341699754691087 -0.007810288434275201
0.061084353086272275 -0.04184929481522334 -0.004217707685045964
0.0017218316013714369 0.01236699106718403 -0.002647124879499321
0.0003221076003726424 0.007758517406511222 0.0024506028237588936
-0.0040986207282242525 -0.016541195331400894 -0.0033957862905439565
-0.0017970278584854068 -0.0320657406311917 -0.005362770140180408
-0.0007438836660844025 0.0034212642352901583 -0.006026049213632705
0.010211395944798442 0.008780291680738333 -0.0017837614050695246
0.026171750729431054 -0.04205996310844051 0.010032998009644689
0.0020147939476127643 0.10728269284586259 -0.03677687149520756
0.002516044543328574 -0.012241333279536878 0.00020809199559703655
0.005654614965825444 -0.021205375836110298 0.005105514685731417
0.008886460790965934 0.019575279742062354 -0.0013669134359451
-0.010140576882270996 -0.04934026769905306 -0.01893233602972388
-0.008024186061661928 0.008901865242107928 0.0014165680849541878
-0.006484931580823622 -0.053019013165037716 -0.005732435775977462
0.023403889498849268 -0.05696577484359168 0.014584679390842565
0.00740533847294108 -0.003034407329062529 0.0017218370365623139
0.0066275992745751635 0.004231075359702995 0.00786162843034259
0.0028386354304377986 0.007696854782015857 0.003451212415701461
0.021541825017097 0.009127837519625216 0.0028834869076725376
-0.006768690038639504 0.006111207310300646 0.0012025561206205286
-0.013496532867511785 -0.022195063302369512 0.007296172429500962
0.0002126963615248776 -0.016350763389718026 -0.002512485450784788
0.002816995979876328 0.015923473941774707 0.00720876879667965
-0.02017251597730155 -0.05230518546728548 -0.028389794908906293
-0.019936462539594614 -0.02608498775435821 -0.00801057688232531
0.0016636674989383294 0.01909922035849613 0.0015508480875073111
-0.002271354407085536 0.008855597650307082 -0.005271840296161068
-0.006791032694169042 -0.013599929836037576 -0.0001970902597849979
-0.009531319327066756 0.006551812494339797 0.003460902244578972
-0.005363704349147455 0.009466509994552922 -0.0032326924913961717
-0.0009463024288023737 0.01810664322194216 -0.013274954160885765
0.012061418088112784 0.0009882142303897835 -0.00026786974992695924
0.011145442323207766 -0.00904096585592015 -0.004546069446118695
0.05232732259726449 -0.0470116405957179 0.015986837100504664
-0.017073043093059924 -0.09912575263841708 0.025136401035174456
0.0023082433235042956 0.1142717215270909 0.010147550599680723
-0.007936406376351358 -0.07285484045503886 -0.01483693249549096
0.0013593616221511018 0.0012046747579640717 -0.008613109944860491
-0.018668991059464547 0.03294838987431114 -0.008054827475922718
-0.006385110796726312 0.0018656051314825351 -0.00014932271669545327
0.0036913785730463057 0.008374701792850527 0.00020155383888077231
0.005444690944606291 0.007039644328141674 0.0028914869230766208