# vtk DataFile Version 2.0
Really cool data
ASCII
DATASET UNSTRUCTURED_GRID
POINTS 584 double
-1.0 0.0 0.0
-0.9600374798207896 -0.027590413451835553 0.04
-0.9589620457797374 -0.028177574718636023 0.0
-0.9553815213922792 0.019675326217199102 0.04
0.6719637381218919 0.02110482676547816 0.0
0.6414775595248179 0.020020515529780993 0.04
0.6571281419012174 0.06 0.0
0.6240641012293764 0.022292119262118645 0.0
0.687851041884645 0.021313940245698455 0.04
0.7030120427199962 0.06 0.04
0.657128141901218 0.06 0.04
0.7030120427199952 0.06 0.0
0.6885310613992013 -0.0196061899732657 0.0
0.6720046167250797 -0.020579604775701428 0.04
0.6407079554435648 -0.019738458112036637 0.0
0.7171469290115033 0.021165332718839136 0.0
-0.7921016077200962 -0.06 0.04
-0.7604373514312079 -0.019298436119384588 0.0
-0.7479973317145423 -0.06 0.04
-0.7479973317145417 -0.06 0.0
0.7030120427199962 -0.06 0.0
0.7030120427199952 -0.06 0.04
0.6571281419012174 -0.06 0.04
0.7479973317145417 -0.06 0.04
0.7325903506195701 -0.020274227246539274 0.0
0.7176321617908783 -0.019839353713154383 0.04
0.7604373514312079 -0.019298436119384588 0.04
-0.8488906624897727 0.019856366527450334 0.04000000000000001
-0.8052789150181434 -0.019306901564895652 0.0
-0.805541091654972 0.020469431563422978 0.04000000000000001
-0.8203038938742353 -0.020636147377884773 0.04
0.897529295217204 0.022569895749215793 0.0
0.8488906624897727 0.019856366527450334 0.0
0.8569454102823642 0.029774901726562965 0.04
0.8777357995360431 0.06 0.0
0.9553815213922792 0.019675326217199102 0.0
0.95349853104827 0.02147987272312249 0.04
0.9103536180674616 -0.021283841161765512 0.0
-0.5450807564691462 -0.01715484187473429 0.04000000000000001
-0.5372746904547943 0.02439300391790418 0.04
-0.49049502097572617 0.000359712426279548 0.04000000000000001
-0.5409244119327052 -0.005150142234760652 0.0
-0.48901428549955095 -0.02776609156780287 0.019771763033692314
-0.4642419910175897 -0.06 0.04
-0.43891524330526177 8.673617379884035e-17 0.04000000000000001
0.7479973317145423 -0.06 0.0
0.9600486361512215 0.06 0.04
1.0 0.06 0.04
1.0 0.06 0.0
0.9192992165657531 0.06 0.0
0.7479973317145423 0.06 0.04
0.7309057796957548 0.02177174945441851 0.039999999999999994
0.7479973317145417 0.06 0.0
0.7613659684934695 0.020945326906433456 0.0
0.7736855084518748 0.020914979208800512 0.04
-0.8570647961856006 -0.015388027432140593 0.0
-0.8569454102823642 0.029774901726562965 0.0
-0.8649535140731797 -0.02016838668923704 0.039999999999999994
-0.1726925416005594 -1.214306433183765e-16 0.039999999999999994
-0.22806385632140147 1.0755285551056204e-16 0.039999999999999994
-0.2006519843784229 0.06 0.0
-0.22806385632140147 -1.1796119636642288e-16 0.0
0.438611990705585 -5.252150912499892e-05 0.04
0.41358849559293387 -0.06 0.04
0.4135884955929341 -0.06 0.0
0.4642419910175897 -0.06 0.0
0.4782715374234063 0.0302584611690398 0.019894876072988572
0.513903464641242 0.06 0.0
0.49049502097572617 0.000359712426279548 0.0
0.46424199101758934 0.06 0.0
0.46424199101758934 -0.06 0.04
-0.8164681441220105 0.022269284396602723 0.0
0.48912437490067595 -0.00041996788971368666 0.04
0.4642419910175897 0.06 0.04
-0.8353421249080566 0.06 0.04
0.8649535140731797 -0.02016838668923704 0.0
0.8973163514988121 0.02144006532192878 0.04
0.5625923446839085 0.06 0.04
0.6103276788742331 0.06 0.0
0.5943416245309461 0.018901239582525348 0.04
0.5790918012159274 0.021628695864523574 0.0
-0.593631917725493 -0.01946781888421301 0.04
-0.6103276788742336 -0.06 0.04
-0.6407079554435648 -0.019738458112036637 0.039999999999999994
-0.6264545933043166 -0.021459100211208025 0.0
-0.6103276788742331 -0.06 0.0
-0.6103276788742336 0.06 0.0
-0.6240641012293764 0.022292119262118645 0.04
-0.6414775595248179 0.020020515529780993 0.0
-0.5943416245309461 0.018901239582525348 0.0
-0.5790918012159274 0.021628695864523574 0.04000000000000001
-0.5625923446839077 0.06 0.04
-0.6103276788742331 0.06 0.04
-0.5625923446839085 0.06 0.0
-0.7325903506195701 -0.020274227246539274 0.039999999999999994
-0.7176321617908783 -0.019839353713154383 0.0
-0.7309057796957548 0.02177174945441851 0.0
-0.7736855084518748 0.020914979208800512 0.0
-0.7613659684934695 0.020945326906433456 0.04
-0.6571281419012174 0.06 0.04
-0.6719637381218919 0.02110482676547816 0.039999999999999994
-0.7030120427199952 0.06 0.04
-0.687851041884645 0.021313940245698455 0.0
-0.029521960903255984 -0.06 0.04
-0.05860957814939871 -6.938893903907228e-17 0.039999999999999994
-0.05860957814939863 5.898059818321144e-17 0.0
-0.08769719539554167 -0.06 0.0
-0.08769719539554144 -0.06 0.04
-0.2823507532564078 -5.204170427930421e-17 0.04
-0.25547572826437986 0.06 0.04
-0.25547572826438003 0.06 0.0
0.38751191920162714 6.938893903907228e-18 0.0
0.3352618020299945 -3.469446951953614e-18 0.0
0.36192316205531716 0.06 0.04
0.3619231620553172 0.06 0.0
-0.36192316205531716 0.06 0.0
-0.335244821032008 -1.1796296425746478e-06 0.0
-0.3352618020299945 -3.469446951953614e-18 0.039999999999999994
-0.38745316199969926 -7.894682722445895e-06 0.0
-0.3619231620553172 0.06 0.04
-0.3092257782484355 0.06 0.04
0.28235075325640757 5.551115123125783e-17 0.039999999999999994
0.30922577824843556 -0.06 0.0
0.335244821032008 -1.1796296425746478e-06 0.04
0.3092257782484355 -0.06 0.04
0.36192316205531716 -0.06 0.0
0.38745316199969926 -7.894682722445895e-06 0.04
0.3092257782484355 0.06 0.0
-0.38751191920162714 6.938893903907228e-18 0.04
-0.28235075325640757 5.551115123125783e-17 0.0
-0.30922577824843556 0.06 0.0
0.6103276788742336 -0.06 0.0
0.593631917725493 -0.01946781888421301 0.0
0.6264545933043166 -0.021459100211208025 0.04
0.4889627886584896 -0.027603176797077415 0.020155725176282127
0.583287522480325 -0.023728770665855194 0.039999999999999994
0.5450807564691462 -0.01715484187473429 0.0
0.5409244119327052 -0.005150142234760652 0.04
-0.48912437490067595 -0.00041996788971368666 0.0
0.3619231620553172 -0.06 0.04
-0.657128141901218 0.06 0.0
0.9600374798207896 -0.027590413451835553 0.0
1.0 0.0 0.04
0.9589620457797374 -0.028177574718636023 0.04
0.5625923446839077 -0.06 0.04
0.5625923446839085 -0.06 0.0
0.7766984080639845 -0.02052537972713625 0.0
-0.438611990705585 -5.252150912499892e-05 0.0
-0.583287522480325 -0.023728770665855194 0.0
-0.9600486361512215 0.06 0.0
-0.95349853104827 0.02147987272312249 0.0
-0.9192992165657539 0.06 0.0
-0.9192992165657531 0.06 0.04
-1.0 0.06 0.0
-0.14473309882269625 -0.06 0.04
-0.14473309882269605 -0.06 0.0
-0.11621514710911887 -1.214306433183765e-16 0.0
-0.17269254160055947 1.1796119636642288e-16 0.0
-0.14473309882269625 0.06 0.0
-0.11621514710911884 1.214306433183765e-16 0.039999999999999994
-0.8353421249080566 -0.06 0.0
-0.8353421249080575 -0.06 0.04
-0.8973163514988121 0.02144006532192878 0.0
-0.897529295217204 0.022569895749215793 0.04
0.11621514710911887 -1.214306433183765e-16 0.039999999999999994
0.05860957814939871 -6.938893903907228e-17 0.0
0.05860957814939863 5.898059818321144e-17 0.039999999999999994
0.08769719539554144 0.06 0.04
0.6103276788742336 0.06 0.04
0.5139034646412424 -0.06 0.0
0.9096368506350345 -0.020963842829632554 0.04
0.805541091654972 0.020469431563422978 0.0
0.8052789150181434 -0.019306901564895652 0.04
0.8203038938742353 -0.020636147377884773 0.0
0.08769719539554144 -0.06 0.0
0.08769719539554167 -0.06 0.04
0.9192992165657531 -0.06 0.04
0.8164681441220105 0.022269284396602723 0.039999999999999994
-0.9103536180674616 -0.021283841161765512 0.04000000000000001
-0.8777357995360431 -0.06 0.0
-0.9096368506350345 -0.020963842829632554 0.0
0.8570647961856006 -0.015388027432140593 0.04
0.7921016077200956 -0.06 0.04
0.8353421249080566 -0.06 0.04
0.7921016077200962 -0.06 0.0
0.4135884955929341 0.06 0.04
0.43891524330526177 8.673617379884035e-17 0.0
-0.7921016077200956 -0.06 0.0
-0.08769719539554144 0.06 0.0
0.14473309882269605 0.06 0.0
0.1726925416005594 -1.214306433183765e-16 0.0
0.11621514710911884 1.214306433183765e-16 0.0
-0.029521960903255984 0.06 0.0
0.0 0.0 0.0
0.17269254160055947 1.1796119636642288e-16 0.04
0.14473309882269625 0.06 0.04
0.0 0.0 0.04
0.2006519843784229 0.06 0.04
0.22806385632140147 -1.1796119636642288e-16 0.04
0.22806385632140147 1.0755285551056204e-16 0.0
-0.6720046167250797 -0.020579604775701428 0.0
-0.7030120427199962 -0.06 0.04
-0.7030120427199952 -0.06 0.0
0.25547572826438003 0.06 0.04
0.30922577824843556 0.06 0.04
0.25547572826437986 0.06 0.0
-0.02952196090325599 0.06 0.04
0.2006519843784232 -0.06 0.04
0.14473309882269605 -0.06 0.04
0.2006519843784229 -0.06 0.0
0.14473309882269625 -0.06 0.0
0.2823507532564078 -5.204170427930421e-17 0.0
-0.36192316205531716 -0.06 0.04
-0.41358849559293387 -0.06 0.0
0.5372746904547943 0.02439300391790418 0.0
0.5139034646412424 0.06 0.04
-0.5139034646412424 -0.06 0.04
0.41358849559293387 0.06 0.0
-0.7171469290115033 0.021165332718839136 0.04
-0.7479973317145417 0.06 0.04
-0.7030120427199962 0.06 0.0
0.08769719539554167 0.06 0.0
0.029521960903255984 -0.06 0.0
-0.02952196090325599 -0.06 0.0
0.02952196090325599 -0.06 0.04
0.02952196090325599 0.06 0.0
0.029521960903255984 0.06 0.04
-0.47805793986482265 0.03008719549728311 0.01940109733029794
-0.4642419910175897 0.06 0.0
0.6103276788742331 -0.06 0.04
1.0 -0.06 0.04
0.9600486361512205 -0.06 0.04
0.9600486361512215 -0.06 0.0
-0.3092257782484355 -0.06 0.0
0.877735799536044 -0.06 0.0
0.8777357995360431 -0.06 0.04
-0.41358849559293387 0.06 0.04
-0.4135884955929341 0.06 0.0
1.0 -0.06 0.0
1.0 0.0 0.0
-0.14473309882269605 0.06 0.04
-1.0 -0.06 0.0
-0.9600486361512215 -0.06 0.04
-1.0 -0.06 0.04
-0.7921016077200962 0.06 0.0
-0.9192992165657531 -0.06 0.0
-0.9600486361512205 -0.06 0.0
-0.7921016077200956 0.06 0.04
-0.7766984080639845 -0.02052537972713625 0.04
-0.5625923446839085 -0.06 0.04
-0.5625923446839077 -0.06 0.0
-0.877735799536044 -0.06 0.04
0.7921016077200962 0.06 0.04
-0.3619231620553172 -0.06 0.0
-0.7479973317145423 0.06 0.0
-0.8777357995360431 0.06 0.04
-0.4135884955929341 -0.06 0.04
-0.46424199101758934 -0.06 0.0
0.513903464641242 -0.06 0.04
-1.0 0.0 0.04
-0.877735799536044 0.06 0.0
-0.30922577824843556 -0.06 0.04
[...]
POINT_DATA 584
VECTORS displacement double
-0.0014964325990634924 0.010184014340557523 -0.0017257071614132735
-0.0035924339750430983 0.011363772682895623 -0.0021265254694437094
-0.0004884316818178894 0.011376086796256207 -0.0011499997262970514
-0.007199827264480831 0.008144163552744504 0.0031418915502692125
-0.0065794351747907424 -0.0179712265498168 0.0005112449066394568
0.0002211403518166034 0.020607205120061728 -0.009218814592576527
0.03944890442895761 -0.0033257706269986267 -0.014703472388696437
0.004883244480513834 -0.00014211981909853318 -0.0039182329032061685
-0.0030888894733450026 -0.014649755239370328 0.0003343280229381405
0.04070408966963797 -0.03073664777650562 0.0029989381605964325
0.03592125878721399 -0.006844898862650614 -0.01080307932550243
0.04120414885543518 -0.022780727823952514 -0.0019699321700162053
-0.011730457308341794 -0.01379736154703061 0.0029843477908644473
-0.009257561577045003 -0.022038550923879515 0.004614092019277056
-0.01378915626892708 -0.029342436729904296 0.0033179842627500404
0.0038193347521301487 -0.0005157690037859966 8.061464823661078e-05
0.0077205477035673375 0.0050218202299704764 -0.0032396850063905742
0.00016796361425045132 -0.00479935065285937 -0.0017078329995271566
0.010144168894362758 -0.010043011088397256 -0.0020329446229701933
0.010938862829198067 -0.008006644987718331 -0.002129127248536789
0.02319646765705419 -0.007641691402407851 0.008716784533805316
0.02819260405706709 -0.007739422878667091 0.009512971488748745
0.008055730171278338 0.012849253336585858 0.015145042380924708
0.010632174710708028 -0.0006531676827596312 0.003682983238956419
-0.01483643656199842 0.0074445404071957185 0.0046060746823622925
-0.012426273876502228 0.017403815869613957 0.0049441847284760095
-0.012038533256846581 -0.009821897627417224 0.0035600771720980247
-0.0016836967252097264 0.0013502687139632624 7.17511528245164e-05
-0.0019475978154061037 0.0027448680724026786 -0.0015209868331139305
0.0006486001663627344 -0.0003550180931913704 -0.000630802649881101
-0.0033991731437916103 0.00359823810445173 -0.0008263373081198695
-0.008863732468721701 -0.0488316384560305 -0.011789685046769851
-0.03312194130258345 0.021987548186837944 -0.012128001222974987
-0.006270126220025403 -0.07191606496694641 -0.007387141011837031
-0.0885729247630934 0.0019406263028886371 0.008741695119616026
0.04502132822676183 0.02680890879618704 -0.004286026267275004
0.032423322185997146 0.030769807491714242 -0.009916782647820841
-0.013661237262285212 -0.0415334030120271 -0.016619177394279462
-0.003445519028029531 -0.01002367752211352 0.0035826235156313654
0.0017092777242888983 -0.010824195038809168 -7.820750736260178e-05
0.0002677738688344895 0.004245284515877197 -0.0017497235940975035
-0.001007576753868419 -0.010688938384483655 0.004727809951065021
0.026131750001812885 -0.015745102769753452 0.004067536050519645
-0.012824660483379168 -0.08180679420688099 -0.007659458582132632
-0.007504761807042625 0.041617561183110066 0.0012938602243103478
0.012646518227583508 -0.0010025907241082673 0.0043176833681620105
-0.09475362970579473 0.01769187763095676 -0.0017838688145836586
-0.07704417732507943 0.08806744727863686 -0.007665668694115696
-0.07631584017101836 0.0798531355783787 -0.00175030397926604
-0.09427069628197515 -0.08343514464930164 -0.0010373642570352234
0.06342083941462408 0.00488035753113998 0.0007870061720445799
0.010127512134785998 0.006444484263067744 0.005495236561621165
0.054833497071487915 0.002474950848553948 0.007861423805844566
0.0034647679618084576 -0.00366257960948219 0.0082917063653731
0.010002688239862442 -0.01319556503906856 0.00351705110592917
-0.004879362344826825 0.0005490386673646885 -0.000252551598212776
-0.0009041579454737349 -0.00044302755902781885 -0.0011120599058765768
-0.006028531000366803 -0.0003848236380331518 -0.001019498129799439
0.004139616488195831 -0.02899154622234968 0.0010902727042925908
-0.003908425016618306 0.023450054628846296 -0.0016139989740114405
0.001664168154221159 0.007608007135012236 0.002049821411762435
-0.009056109669620414 0.021365806818169145 -0.0003251205274637283
-0.0062670411691135505 -0.04183659114638284 0.0019243771047626544
-0.0026834954389171406 -0.01363364054523863 0.0015486651239397732
-0.011717271635790871 -0.003963367236634583 -0.006184840600838273
0.016524575121188066 0.0349324328569863 -0.010727925708260684
-0.004550293148925374 0.02659670662326537 0.003227786914738049
0.005883651006680468 0.005590252321754217 -7.854321346141266e-05
-0.0032703599306215404 0.02515699243866059 0.0008082021839853256
-0.0036556189554538413 0.015936603910322554 0.003969261945225323
0.015756830471694076 0.0658123854256356 0.01046034056451538
-0.0019334696861108296 -0.0010929529734431344 -0.002083789652775623
-0.004683502855690751 0.021800304893641785 -0.003516418906125532
-0.005291825408822212 0.02946432653228952 -0.0013696767939714602
0.0070051218238710656 -0.0014402521658092196 -3.126757258367157e-05
-0.03941626671955601 0.0510888871420804 -0.014107952811865162
0.017257432290912093 -0.05064440514239231 -0.0061258067275389416
-0.003091515012034068 0.0028036169197908807 0.0006758086706532222
0.01444270791098422 -0.016695138396264863 -0.00855487757001857
-0.0016004817897931165 0.02300479070090724 -0.0047515109740693465
-0.006802636745898875 0.010323242964399333 -0.005705859203489178
-0.005973910655299814 0.004845593455159717 0.0014592390446168213
0.00247755434238139 0.0021020853035867548 0.0022093877265162575
-0.007841802824371705 -0.0017298955108151926 -0.0024881808177787492
-0.0038920469757131684 -0.0008100149838164254 0.001259507910942537
0.006309031867736656 0.0006339504087604368 0.004656699981141653
0.008960343261719524 -0.004164273387143829 -0.004816034275459424
-0.001255669983551526 0.003831969533047091 0.0002106722038964898
0.0019798572007671735 0.0006698657950061725 -0.002519759126854411
0.0027163379269657707 -1.769839210895171e-05 -4.4270122013654735e-05
0.0005685066013615545 0.0020869694143209965 0.0013336568504326632
0.00853832112601019 -0.007103202560197227 0.000270291205920142
0.008237090842004812 -0.010214671216657539 0.0021803102696523243
0.012199102471075116 -0.005989519961222398 -0.00024825911372749896
-0.003970318431764069 0.0025612373933939893 -0.003717787778211579
-0.0026376680998441973 0.0038815506597135313 -0.0013308484366393956
-0.003678858536241065 0.003767656660361699 -0.002451093301019792
0.0020355580932484713 0.0004108670299863581 -0.0028861627028130225
0.0002867194254749628 0.00715439114444927 -0.002982286395860772
0.00835958137945493 0.0009206097104621547 -0.004920175941236438
0.001162504381842824 0.009357209459574658 -0.0029011153118381604
0.006078860152448248 -0.025529345476733804 -0.0044614847285054165
0.0018964647247533596 -0.002145179075887875 -0.005917982655910182
0.0021906176060677214 -0.03994733758952542 0.007156764387634597
0.0017853700784405614 0.019071068584736724 -0.0011547338691568379
0.00488280508034127 0.014182559929364555 0.0021266108382840127
0.01825337227455764 0.02724812833382831 0.005119833263569343
0.006670711294742353 0.03220979184024477 -0.002900867101993344
0.006343254730976975 -0.01862475357026063 -0.0015465409320626206
-0.006528237150100223 -0.004950953851444412 0.004477936674161267
-0.012421590402440641 9.797612601344073e-05 -6.198251753252365e-05
-0.016385875664482515 0.03449037592708023 0.0009015444533032802
0.0029677768776400246 -0.05662973378549937 0.006969586437944434
-0.020176923953056456 0.06127499012307842 -0.006439462856612389
-0.01649511047239296 0.04915331308304421 0.0004084254269080395
-0.006207831545991576 -0.02423309819410935 0.0021831740709941675
-0.008690508175122751 0.008633331641857611 -0.0003422491381611006
0.00030465200325488446 0.007955782284319776 0.0013881771199911047
0.0044836991346151114 -0.022425472793220075 0.004948075806776124
0.006711000046063255 -0.03608898956113089 0.007167433795576706
0.01453037512077306 0.018291761638535912 -0.003990732859347324
-0.01663788969383796 0.037264453666486556 -0.0033480338397296632
-0.01647492828492378 -0.0014784071112835652 0.0019149191615254967
-0.0027772101376681113 -0.07209708558571869 -0.002695164826768142
-0.015669447947803193 0.014267006432231891 0.014689089731015927
0.024264194168330092 -0.006424438923728154 0.00150518245736363
-0.014347381269568336 0.04638876911593681 -0.0005609802939910764
0.020928126505587157 -0.03336368721680149 0.005461000766148928
0.002526805521061853 -0.025052780053657235 0.002722381074381442
0.0031342040934951173 -0.013892126011004759 -0.0010765927193091258
0.0005042890049236454 0.012878194882882858 -0.0005165997822803068
-0.00825919383599799 -0.03342622818805808 0.003198935046649705
0.0055703588568992955 0.01523047287598823 -0.0008856165530370494
-0.007412252487310054 -0.042413904848882515 -0.001520305981251443
0.02944219335766304 0.015526064667734695 -0.004747121943931509
0.007321033553830786 0.03718673470540992 -0.002733571948495951
-0.013842947489159449 -0.0019289713642022606 -0.007972615809132647
-0.012181048567769784 -0.011420475958976347 -0.0042968622101510374
-0.0015850597468116214 -0.010855134190177525 0.005360585632992857
0.03106126818940992 0.007018387386404348 0.006842859084186576
0.008019309388663265 0.0001759854617180024 -0.005183826829946837
-0.011131415873918292 0.03378185234281054 0.0005218880924792014
0.02231332371279243 -0.036650708650310455 -0.0034963714164383936
-0.02899916103472016 0.05407070557748116 -0.010661046254477556
0.012535899113141388 0.05155099378252279 0.0025982014329535685
0.010489300064818036 0.032318225514798564 0.002788742086858977
-0.01605420862154967 -0.016339242452695687 0.0016921357582642086
-0.009826040173573924 0.037825639978976616 0.004060639461896553
-0.0021695189271533945 -0.0004750284937654756 0.0035899542905530137
0.006864755323631697 0.004901670654101627 0.003938788382690669
-0.005697479339827072 0.008897497059771643 0.0014141611630984234
0.007256355311320888 -0.002535121621712139 0.0019851262334993646
0.009402514566124193 -0.011425778054522363 0.007628557557493767
0.003501426036804893 0.022810748052765277 0.004989237633714989
0.012891893441453145 -0.03689777772065512 -0.002187412913516121
0.02161605258210788 -0.026945238042784467 -0.004493069213450949
-0.0020858150684710244 0.012068261330754409 -0.00043227119320411066
0.0019677750095182934 -0.02350015749413064 -0.0003072221445646743
-0.011426308262587349 -0.015584941365118921 -0.0008496387159856217
0.0019036524574157767 0.01474444269553033 -0.0023570065100644686
0.00807806872463328 0.004766326389065088 -0.0010638071958317225
0.006031840304285911 0.005495318906509517 -0.0015404562070726001
-0.004137988496467659 0.00029172542280150285 0.0011026604793645952
-0.0002894488875116524 0.0011959452250772987 0.0012842808054022966
0.008026128902327104 -0.029228359550122717 -0.0002378216382208915
-0.016479802141397975 0.027250012239493488 -0.004100949953137667
-0.019056476171338897 0.0386362457700329 0.0019214479256346893
0.010001789572577373 -0.07452508213986093 -0.0021939205507223994
0.018801798172015657 -0.0296840799550489 -0.006217377588149181
0.004194771263344706 -0.03841206009970281 -0.01431944709733271
-0.02223660414519253 -0.059185791121532806 -0.006761899764622884
0.005892671850845761 -0.004163959355413871 0.013769352507019338
-0.02423192355222765 -0.03881366607022074 0.002181009699067038
-0.024313222593631098 -0.019148977797032746 -0.004899210899873732
-0.010999026407555238 0.020280119157015223 0.00032946634149826163
-0.007986834394993446 0.02167998731561969 0.003995137280395382
0.04131684290120035 -0.022986361587418534 -0.023548406907291014
0.016924070959395344 -0.017060616621879274 0.0009246909885272362
-0.004640820841141059 -0.0010431200005570729 0.0006571126919596721
0.008826451932157324 -0.0048669528060525805 0.0007846924917199014
-0.00233572559498941 -0.001325643096768224 0.0012491878209547375
-0.04044485407031166 0.06013035830461886 0.007220597954057238
0.010517871749087152 -0.03625827118790357 0.0004135833708368297
0.020547200167940597 0.002582505976514738 -0.004574214200481638
0.007332636326876353 -0.03295979042998271 0.0011676800342157595
0.002681140981121538 -0.049041205240585466 0.0049786083278776155
0.0006136619775799732 -0.02609584459272848 0.007103651170357414
0.00932133751549278 0.0039481997280108126 -0.002440840263908827
-0.004170204947764997 0.02228490840139746 -0.0025881919863303153
0.007901398764146758 0.04392648580708561 0.00028963724910743886
-0.014682460397635148 0.03637966287897513 -0.0003654699856264955
0.010263141547070939 -0.027873792862268647 -0.0008709507545022041
0.006282879095472172 -0.016342560894836686 -0.00033688419804137233
-0.004856944597117008 -0.029647064509600637 0.0031385526165193796
-0.01744257141791793 0.04125868421250624 0.00022032562393010073
0.007597060645319755 0.06456889787748409 -0.011839514419917253
0.002181131068816849 -0.02454876986747914 -0.005183384671649379
0.03780307007777218 -0.07585195134866926 0.009933012064625603
0.020487896471475975 -0.043608797788931404 0.00011753904281330196
0.016736263140295263 -0.03314206089623245 0.0013717067061821205
0.0005727171051594189 -0.006245302909644296 4.3848138450835185e-05
0.008627130395912097 0.008805644036886327 0.00043618005256080325
0.010332362503250257 0.006020675688565846 0.0008909588475101808
0.016252243408796947 0.09243817968370596 -0.00369802098994516
0.02706701121695634 -0.04076569914649082 0.007491957062358828
0.004392013200823551 0.07406349669242765 -0.001266683023308085
0.01529348564271913 -0.026380057137540668 0.008551630690522862
-0.0189285563725903 0.04146863226013302 0.002835968304491214
0.010177948034124402 -0.03504894980765796 -0.00659615797545151
-0.01255572491479851 0.03535710376383804 0.0017102603284047367
0.008059554143828281 -0.02716727251512839 0.00039722789270800663
-0.014383147371466379 0.034211144415325224 0.00193677039210056
0.0005093027180523786 -0.053365377253226175 -0.0028224344360630415
-0.01145064276705362 0.057443526062609704 0.004435561311666001
-0.0024670913618932604 -0.00018988540763439395 0.0011909396968626718
0.0032015222344477247 0.007740464262509085 0.0023088208830820377
0.010150338565242441 0.02971412982197194 0.013811642664006927
0.006470614416490551 -0.04077085827978045 0.004323431811864523
-0.0034316929573005787 0.0021762265306840304 -0.0025639835146785573
0.0017257660429900003 0.01601813102898048 -0.0028860117723728605
0.002276817860051634 -0.014346442763439987 -0.005119625999709715
0.020505734706653855 -0.058439691989484246 -0.004734813942425448
0.005761971090939116 -0.009160744741719436 0.005525653182190552
0.0028572661399191763 -0.036805825122677556 0.0073324923633551935
0.010738388197032505 -0.00616061116761002 0.004412439578012677
-0.014311567425427845 0.03428169578958969 -0.006638898943663746
-0.01276186464477834 0.04343449071852645 -0.011479782110719025
-0.006431660563425366 -0.004375526150021857 0.0017225290365767522
-4.48428118598012e-06 0.0029974227157471517 0.0070677670552094386
-0.009813762460673864 -0.04094046615265788 0.00016561717202044377
-0.031661824594430635 0.02180238618189219 0.02922313156006286
0.005316012092591485 -0.021456743462339153 -0.0007980068310329455
0.011063771565590689 0.013163828120566374 -0.007706184965895596
0.00465287266796235 0.04686421919706558 -0.002897590152126214
0.003928912733913674 0.06147128487096884 -0.0026705621644528246
0.0025731615949998307 0.08399858318841512 0.001088513156281503
0.02635954194062904 0.032488162771363335 0.003992422084907416
0.009078834104067365 0.027068816992284913 0.003458396150755902
-0.01741419285114891 0.005953288043997815 0.016469123419626624
0.02680653128274366 -0.02271004696625104 0.006683366710118699
-0.00553806105502826 -0.022779183868085136 0.0009101566324593464
0.013743536141862436 -0.011797242135261628 -0.007770639239722716
0.01274997801575207 0.014606307436794348 -0.000955708126481572
0.013473782755256722 -0.023622526734378795 -0.00951038814905801
0.004981240697889202 -0.008008460874224625 -0.0039799353377174594
0.011855811264557656 -0.002731470695751247 0.0009385894561199219
0.013064624141333187 0.010359226366021568 -0.0028768670647959867
0.007330979817958888 -0.011457332447017092 -0.00211658658933813
0.0006753274484382405 -0.005573225656406741 -0.003005568811201452
0.002476356022984295 -0.004161471555824052 0.005235029488501122
0.004481278454381374 -0.0036730995184885693 0.0032381089132497015
0.006928793123462396 -0.01011089196014603 -0.0030566147469254404
0.07712776054958126 -0.019362030478264767 0.018100809497061478
0.00688091478539133 -0.0446313909123255 -0.0016026733481978887
0.0027777086666619837 0.010865543428930436 -0.004912916419504825
0.008884615628202005 -0.0015870110772054412 -0.001150197108735917
-0.0255708816098714 0.07240134030508029 0.004921179601189295
0.005580389896262698 -0.04655229025676415 -0.004913983484591332
0.0004340889755755913 -0.06404803525782113 -0.014222491374467038
-0.0070566104069942235 0.010196869452893791 -0.010593794178975827
0.007357249764708766 -0.0009779272569547576 -0.001457577612413789
-0.009028952504806944 0.05611829942628384 0.000615217921812713
0.0032090093648246844 -0.051488354782294264 -0.005635453507984598
0.0022187046539953706 0.024564263255928163 -0.001956094212374655
0.017101539923529883 -0.03154934578586792 0.005939659907276898
0.019297791137649074 -0.03840618572400868 -0.007234463246178393
0.005954024013954254 -0.010022764220930161 0.010275248406334201
0.01254497302829192 -0.00868933837004058 0.0005116878899919458
0.004350294902652466 0.009099104812335472 0.0029498578449392273
0.00117693120322692 -0.0007997298108636367 -0.0027430740032623447
-0.08319021707891863 0.02571538657758499 -0.0005007386985649312
-0.0010518786767253043 0.020588119990581164 0.008631930582065532
-0.005896403355144015 0.017011618405983246 -0.004265652405775785
0.007778725112938663 -0.035035136978447096 0.017927845341348232
0.00892312887778491 -0.017382683832018474 0.0010975369208390399
-0.13247573837444468 0.07721342681176778 -0.016497663623319593
-0.15341806379700512 -0.12455811369881202 -0.02649700438160923
0.00691436292804224 -0.032976741137805916 -0.0005296718794398643
0.01153671071752267 -0.004472099071275913 -0.0026751243536086745
0.01575814338531534 0.013470030525809223 0.0013651170875876113
0.007660850296706071 0.015307284024365929 -0.0021026391544120954
0.004970984765051128 -0.0014241358345765183 -0.0018115002471625129
0.01839842269291987 0.1391071105895719 0.07722860747079963
0.0357334715986994 0.20285530377063635 -0.0034281173256569945
0.07021511317513994 -0.004672106387876195 0.041108715728712504
0.020101269418600996 -0.0379838930176921 -0.004729179918414262
0.0013053023686323897 0.004640334092602286 -0.0013652657773872913
0.009973809690693987 -0.024309335487948554 0.0005943662793401752
0.009680463803385836 -0.004589601763381093 0.007835511477114582
-0.008092016898839361 0.05128663748404601 0.002448176877026625
0.004572718289367427 0.04016669077976802 -0.0007464633258878259
0.0354038032721224 -0.05922446465999268 0.0034834353092758224
0.0022117735142300507 0.002198633401216938 -0.0058170494133423
-0.011231548116362311 0.015386493757154146 -0.006110293471120529
-0.0026861567314178584 0.023903640047996364 -0.004512585468434009
-0.0020591827666432035 0.003968353016127771 -0.003086696205365995
0.010535748211606012 -0.032240083030777 -0.002121667939236751
0.0021931685121750915 -0.004618989643245379 -0.0009977443336681884
-0.0019478309116734093 0.0028958571313601454 3.4139416108260044e-05
0.004367685936019688 -0.04159982734457729 0.0017279809613251413
-0.00967915265587006 0.03051701375647421 -0.009093011056681796
-0.0050383908996387075 0.012396675499854147 -0.0026747623090333248
0.006405656104378457 0.0006544524845310588 -0.0005017355813591104
-0.012321695966216767 0.02111650913605561 -0.0015107161908653455
-0.005300054776574759 -0.014343302017125265 0.0005652094247645162
-0.007830039404162992 0.005662310369502409 -0.00405336466715874
-0.010941125808821806 -0.017071995044573525 0.000398679308443407
-0.01837752384853266 0.0015978714219724707 0.004096560090010392