# vtk DataFile Version 2.0
Really cool data
ASCII
DATASET UNSTRUCTURED_GRID
POINTS 584 double
-1.0 0.0 0.0
-0.9600374798207896 -0.027590413451835553 0.04
-0.9589620457797374 -0.028177574718636023 0.0
-0.9553815213922792 0.019675326217199102 0.04
0.6719637381218919 0.02110482676547816 0.0
0.6414775595248179 0.020020515529780993 0.04
0.6571281419012174 0.06 0.0
0.6240641012293764 0.022292119262118645 0.0
0.687851041884645 0.021313940245698455 0.04
0.7030120427199962 0.06 0.04
0.657128141901218 0.06 0.04
0.7030120427199952 0.06 0.0
0.6885310613992013 -0.0196061899732657 0.0
0.6720046167250797 -0.020579604775701428 0.04
0.6407079554435648 -0.019738458112036637 0.0
0.7171469290115033 0.021165332718839136 0.0
-0.7921016077200962 -0.06 0.04
-0.7604373514312079 -0.019298436119384588 0.0
-0.7479973317145423 -0.06 0.04
-0.7479973317145417 -0.06 0.0
0.7030120427199962 -0.06 0.0
0.7030120427199952 -0.06 0.04
0.6571281419012174 -0.06 0.04
0.7479973317145417 -0.06 0.04
0.7325903506195701 -0.020274227246539274 0.0
0.7176321617908783 -0.019839353713154383 0.04
0.7604373514312079 -0.019298436119384588 0.04
-0.8488906624897727 0.019856366527450334 0.04000000000000001
-0.8052789150181434 -0.019306901564895652 0.0
-0.805541091654972 0.020469431563422978 0.04000000000000001
-0.8203038938742353 -0.020636147377884773 0.04
0.897529295217204 0.022569895749215793 0.0
0.8488906624897727 0.019856366527450334 0.0
0.8569454102823642 0.029774901726562965 0.04
0.8777357995360431 0.06 0.0
0.9553815213922792 0.019675326217199102 0.0
0.95349853104827 0.02147987272312249 0.04
0.9103536180674616 -0.021283841161765512 0.0
-0.5450807564691462 -0.01715484187473429 0.04000000000000001
-0.5372746904547943 0.02439300391790418 0.04
-0.49049502097572617 0.000359712426279548 0.04000000000000001
-0.5409244119327052 -0.005150142234760652 0.0
-0.48901428549955095 -0.02776609156780287 0.019771763033692314
-0.4642419910175897 -0.06 0.04
-0.43891524330526177 8.673617379884035e-17 0.04000000000000001
0.7479973317145423 -0.06 0.0
0.9600486361512215 0.06 0.04
1.0 0.06 0.04
1.0 0.06 0.0
0.9192992165657531 0.06 0.0
0.7479973317145423 0.06 0.04
0.7309057796957548 0.02177174945441851 0.039999999999999994
0.7479973317145417 0.06 0.0
0.7613659684934695 0.020945326906433456 0.0
0.7736855084518748 0.020914979208800512 0.04
-0.8570647961856006 -0.015388027432140593 0.0
-0.8569454102823642 0.029774901726562965 0.0
-0.8649535140731797 -0.02016838668923704 0.039999999999999994
-0.1726925416005594 -1.214306433183765e-16 0.039999999999999994
-0.22806385632140147 1.0755285551056204e-16 0.039999999999999994
-0.2006519843784229 0.06 0.0
-0.22806385632140147 -1.1796119636642288e-16 0.0
0.438611990705585 -5.252150912499892e-05 0.04
0.41358849559293387 -0.06 0.04
0.4135884955929341 -0.06 0.0
0.4642419910175897 -0.06 0.0
0.4782715374234063 0.0302584611690398 0.019894876072988572
0.513903464641242 0.06 0.0
0.49049502097572617 0.000359712426279548 0.0
0.46424199101758934 0.06 0.0
0.46424199101758934 -0.06 0.04
-0.8164681441220105 0.022269284396602723 0.0
0.48912437490067595 -0.00041996788971368666 0.04
0.4642419910175897 0.06 0.04
-0.8353421249080566 0.06 0.04
0.8649535140731797 -0.02016838668923704 0.0
0.8973163514988121 0.02144006532192878 0.04
0.5625923446839085 0.06 0.04
0.6103276788742331 0.06 0.0
0.5943416245309461 0.018901239582525348 0.04
0.5790918012159274 0.021628695864523574 0.0
-0.593631917725493 -0.01946781888421301 0.04
-0.6103276788742336 -0.06 0.04
-0.6407079554435648 -0.019738458112036637 0.039999999999999994
-0.6264545933043166 -0.021459100211208025 0.0
-0.6103276788742331 -0.06 0.0
-0.6103276788742336 0.06 0.0
-0.6240641012293764 0.022292119262118645 0.04
-0.6414775595248179 0.020020515529780993 0.0
-0.5943416245309461 0.018901239582525348 0.0
-0.5790918012159274 0.021628695864523574 0.04000000000000001
-0.5625923446839077 0.06 0.04
-0.6103276788742331 0.06 0.04
-0.5625923446839085 0.06 0.0
-0.7325903506195701 -0.020274227246539274 0.039999999999999994
-0.7176321617908783 -0.019839353713154383 0.0
-0.7309057796957548 0.02177174945441851 0.0
-0.7736855084518748 0.020914979208800512 0.0
-0.7613659684934695 0.020945326906433456 0.04
-0.6571281419012174 0.06 0.04
-0.6719637381218919 0.02110482676547816 0.039999999999999994
-0.7030120427199952 0.06 0.04
-0.687851041884645 0.021313940245698455 0.0
-0.029521960903255984 -0.06 0.04
-0.05860957814939871 -6.938893903907228e-17 0.039999999999999994
-0.05860957814939863 5.898059818321144e-17 0.0
-0.08769719539554167 -0.06 0.0
-0.08769719539554144 -0.06 0.04
-0.2823507532564078 -5.204170427930421e-17 0.04
-0.25547572826437986 0.06 0.04
-0.25547572826438003 0.06 0.0
0.38751191920162714 6.938893903907228e-18 0.0
0.3352618020299945 -3.469446951953614e-18 0.0
0.36192316205531716 0.06 0.04
0.3619231620553172 0.06 0.0
-0.36192316205531716 0.06 0.0
-0.335244821032008 -1.1796296425746478e-06 0.0
-0.3352618020299945 -3.469446951953614e-18 0.039999999999999994
-0.38745316199969926 -7.894682722445895e-06 0.0
-0.3619231620553172 0.06 0.04
-0.3092257782484355 0.06 0.04
0.28235075325640757 5.551115123125783e-17 0.039999999999999994
0.30922577824843556 -0.06 0.0
0.335244821032008 -1.1796296425746478e-06 0.04
0.3092257782484355 -0.06 0.04
0.36192316205531716 -0.06 0.0
0.38745316199969926 -7.894682722445895e-06 0.04
0.3092257782484355 0.06 0.0
-0.38751191920162714 6.938893903907228e-18 0.04
-0.28235075325640757 5.551115123125783e-17 0.0
-0.30922577824843556 0.06 0.0
0.6103276788742336 -0.06 0.0
0.593631917725493 -0.01946781888421301 0.0
0.6264545933043166 -0.021459100211208025 0.04
0.4889627886584896 -0.027603176797077415 0.020155725176282127
0.583287522480325 -0.023728770665855194 0.039999999999999994
0.5450807564691462 -0.01715484187473429 0.0
0.5409244119327052 -0.005150142234760652 0.04
-0.48912437490067595 -0.00041996788971368666 0.0
0.3619231620553172 -0.06 0.04
-0.657128141901218 0.06 0.0
0.9600374798207896 -0.027590413451835553 0.0
1.0 0.0 0.04
0.9589620457797374 -0.028177574718636023 0.04
0.5625923446839077 -0.06 0.04
0.5625923446839085 -0.06 0.0
0.7766984080639845 -0.02052537972713625 0.0
-0.438611990705585 -5.252150912499892e-05 0.0
-0.583287522480325 -0.023728770665855194 0.0
-0.9600486361512215 0.06 0.0
-0.95349853104827 0.02147987272312249 0.0
-0.9192992165657539 0.06 0.0
-0.9192992165657531 0.06 0.04
-1.0 0.06 0.0
-0.14473309882269625 -0.06 0.04
-0.14473309882269605 -0.06 0.0
-0.11621514710911887 -1.214306433183765e-16 0.0
-0.17269254160055947 1.1796119636642288e-16 0.0
-0.14473309882269625 0.06 0.0
-0.11621514710911884 1.214306433183765e-16 0.039999999999999994
-0.8353421249080566 -0.06 0.0
-0.8353421249080575 -0.06 0.04
-0.8973163514988121 0.02144006532192878 0.0
-0.897529295217204 0.022569895749215793 0.04
0.11621514710911887 -1.214306433183765e-16 0.039999999999999994
0.05860957814939871 -6.938893903907228e-17 0.0
0.05860957814939863 5.898059818321144e-17 0.039999999999999994
0.08769719539554144 0.06 0.04
0.6103276788742336 0.06 0.04
0.5139034646412424 -0.06 0.0
0.9096368506350345 -0.020963842829632554 0.04
0.805541091654972 0.020469431563422978 0.0
0.8052789150181434 -0.019306901564895652 0.04
0.8203038938742353 -0.020636147377884773 0.0
0.08769719539554144 -0.06 0.0
0.08769719539554167 -0.06 0.04
0.9192992165657531 -0.06 0.04
0.8164681441220105 0.022269284396602723 0.039999999999999994
-0.9103536180674616 -0.021283841161765512 0.04000000000000001
-0.8777357995360431 -0.06 0.0
-0.9096368506350345 -0.020963842829632554 0.0
0.8570647961856006 -0.015388027432140593 0.04
0.7921016077200956 -0.06 0.04
0.8353421249080566 -0.06 0.04
0.7921016077200962 -0.06 0.0
0.4135884955929341 0.06 0.04
0.43891524330526177 8.673617379884035e-17 0.0
-0.7921016077200956 -0.06 0.0
-0.08769719539554144 0.06 0.0
0.14473309882269605 0.06 0.0
0.1726925416005594 -1.214306433183765e-16 0.0
0.11621514710911884 1.214306433183765e-16 0.0
-0.029521960903255984 0.06 0.0
0.0 0.0 0.0
0.17269254160055947 1.1796119636642288e-16 0.04
0.14473309882269625 0.06 0.04
0.0 0.0 0.04
0.2006519843784229 0.06 0.04
0.22806385632140147 -1.1796119636642288e-16 0.04
0.22806385632140147 1.0755285551056204e-16 0.0
-0.6720046167250797 -0.020579604775701428 0.0
-0.7030120427199962 -0.06 0.04
-0.7030120427199952 -0.06 0.0
0.25547572826438003 0.06 0.04
0.30922577824843556 0.06 0.04
0.25547572826437986 0.06 0.0
-0.02952196090325599 0.06 0.04
0.2006519843784232 -0.06 0.04
0.14473309882269605 -0.06 0.04
0.2006519843784229 -0.06 0.0
0.14473309882269625 -0.06 0.0
0.2823507532564078 -5.204170427930421e-17 0.0
-0.36192316205531716 -0.06 0.04
-0.41358849559293387 -0.06 0.0
0.5372746904547943 0.02439300391790418 0.0
0.5139034646412424 0.06 0.04
-0.5139034646412424 -0.06 0.04
0.41358849559293387 0.06 0.0
-0.7171469290115033 0.021165332718839136 0.04
-0.7479973317145417 0.06 0.04
-0.7030120427199962 0.06 0.0
0.08769719539554167 0.06 0.0
0.029521960903255984 -0.06 0.0
-0.02952196090325599 -0.06 0.0
0.02952196090325599 -0.06 0.04
0.02952196090325599 0.06 0.0
0.029521960903255984 0.06 0.04
-0.47805793986482265 0.03008719549728311 0.01940109733029794
-0.4642419910175897 0.06 0.0
0.6103276788742331 -0.06 0.04
1.0 -0.06 0.04
0.9600486361512205 -0.06 0.04
0.9600486361512215 -0.06 0.0
-0.3092257782484355 -0.06 0.0
0.877735799536044 -0.06 0.0
0.8777357995360431 -0.06 0.04
-0.41358849559293387 0.06 0.04
-0.4135884955929341 0.06 0.0
1.0 -0.06 0.0
1.0 0.0 0.0
-0.14473309882269605 0.06 0.04
-1.0 -0.06 0.0
-0.9600486361512215 -0.06 0.04
-1.0 -0.06 0.04
-0.7921016077200962 0.06 0.0
-0.9192992165657531 -0.06 0.0
-0.9600486361512205 -0.06 0.0
-0.7921016077200956 0.06 0.04
-0.7766984080639845 -0.02052537972713625 0.04
-0.5625923446839085 -0.06 0.04
-0.5625923446839077 -0.06 0.0
-0.877735799536044 -0.06 0.04
0.7921016077200962 0.06 0.04
-0.3619231620553172 -0.06 0.0
-0.7479973317145423 0.06 0.0
-0.8777357995360431 0.06 0.04
-0.4135884955929341 -0.06 0.04
-0.46424199101758934 -0.06 0.0
0.513903464641242 -0.06 0.04
-1.0 0.0 0.04
-0.877735799536044 0.06 0.0
-0.30922577824843556 -0.06 0.04
[...]
POINT_DATA 584
VECTORS displacement double
0.0043317169128997655 -0.04983157207473104 -0.010955738406101792
0.0014992198348871052 -0.043973570023507706 -0.0075677601697896136
0.005144149070315865 -0.04481765245990492 -0.008152951445735392
-0.0011310742862048991 -0.047514654160603874 -0.007377412251738814
-0.0010785229393588441 0.028580251080793522 0.00842666566027092
0.00035387863892646297 0.005506828080638412 0.010846455001797959
-0.004269300384680613 0.01777349813789594 0.010969224810104872
-0.00103003974817638 -0.0033023707671845856 0.01102655065235533
0.0006077459005910921 0.036153774175666266 0.008514704010565671
0.000578660824002315 0.040078464658037244 0.008226136859179098
-0.002810135410890769 0.016510902358804282 0.011196909457163867
-0.0019123182026730256 0.04093173707190863 0.007439124548370213
-0.004259319582738336 0.03738137467067871 0.006410298389520067
-0.0018985271161728494 0.027927985252014356 0.0072435882114075
-0.003589964096989848 0.00917352947353803 0.009117624714922133
-0.001305790329636326 0.04627614574911432 0.005744937328529792
0.013747141332247104 0.04425593920199134 0.008034734879834905
0.006066007896790062 0.05208730691834168 0.009038948097407417
0.010232367360955456 0.05102819943443623 0.012575711031940412
0.015024569752589631 0.052584884926014 0.010713642405954987
-0.0038773332792507794 0.04291364956737207 0.004004642578691519
-0.002013097817232635 0.03964672623296574 0.0024951787285653858
-0.00025658999604084463 0.017454620496819003 0.006834116692562502
-0.003957239425791882 0.05279771612796158 -4.747176250333155e-05
-0.003845610552010259 0.05239677071980797 0.003199497365045848
-0.002356457640240916 0.04761077529150316 0.004205912299295237
-0.0008360532815891918 0.05521317769193719 0.0011862350876241936
0.0009121028007306454 0.015356206634594182 -0.00026684745939709726
0.006846573770491445 0.03982974851961295 0.004821486094012584
5.601321295475401e-05 0.045958491341747294 0.002284552650265121
0.004502342401822365 0.032337590820337186 0.002976648108645891
-0.00019848653310680466 -0.0007849622935288626 -0.005757694669898001
0.00013799727726099078 0.025065495485458028 -0.002485406250040804
0.003231232179597244 0.019906016982713288 -0.0020776901862479356
0.009114505400196855 0.009078164378882368 -0.0012614305943560644
-0.001822839410755685 -0.03218577705460766 -0.010244171147249218
0.0011671658184907938 -0.03715774999229505 -0.009700178628874517
-0.005458810563587729 -0.007495529270941634 -0.011700144714904768
-0.002565636220264258 -0.052703622158360525 0.009864078604972248
-0.004514568901230656 -0.053391498869686825 0.01394887938940649
-0.0015542318722392894 -0.0492699846066634 0.008057910237831218
-0.004190029719687225 -0.04815988432813941 0.012144823689201825
-0.0023577917296801467 -0.046876784872326396 0.004196131187870768
-0.000776137955137982 -0.04677082050622581 -0.0035700464220784463
-0.0009959891408957743 -0.040730492503363934 0.0013296620270406934
-0.006094785331742348 0.054997374047107486 -0.00020486991298815393
0.01107407874311114 -0.03892796729833453 -0.00499020084959019
0.010645931856309543 -0.05209718605543571 -0.0068519605606815834
0.008551541368499498 -0.046068889979660986 -0.007012573373257952
0.009382124064886562 -0.011614939179922101 -0.002672269391995551
0.0001107220571517287 0.05049159499994555 0.006085731399365114
0.001250265131909696 0.04602880527840252 0.005540610344727156
-0.0017899193635490978 0.053618706236022336 0.005670274200502982
-0.001054885805245167 0.05709019713341881 0.002200420901884059
0.0008553568265733938 0.05694363967878844 0.0030485003629530287
0.005793973469081621 0.01147144174765738 0.0001935295594229334
0.0021643451464623607 0.009199010412934977 -0.0015855833252643116
0.003346282297388657 0.008702333906349403 -4.89821767120761e-06
-0.0014750991076670585 0.03663534292011812 -0.0177086524711024
0.0003876899344365335 0.05557429270297659 -0.01635997683683565
-0.0019947368206355664 0.05446553306551605 -0.013887675249235936
-0.0006595982075565472 0.05967322250428151 -0.017480902072505782
0.00041351091588003616 -0.036399025585102204 0.011740783363450821
-0.005243578105365749 -0.022854777248989655 0.015602440688461262
-0.004431448418075562 -0.026916365032357746 0.01570275970059262
-0.004754276012381079 -0.054392216268926145 0.016412275814718803
0.0014975522300667166 -0.052783557704919166 0.011384350608516645
0.002756922526589198 -0.05397839910588282 0.011252359136075057
-0.0008300407394976702 -0.05423570428920355 0.012810814899710636
0.006158492700227497 -0.049491792788042374 0.008875246168893987
-0.004707473280457168 -0.05632646947513606 0.014068147992775074
0.0030132061364947847 0.03423412192436422 0.001080551065959175
-0.00038872907285026096 -0.05199201570565334 0.013007976193952884
0.005589798259449221 -0.0487692524634281 0.010265319164233965
-0.004670359897921966 0.024121951676912987 -0.0012555425471595803
-0.005176505896109765 0.015647170823294948 -0.007533227509951967
0.001152206384111777 -0.005080275343661223 -0.005881744537495802
0.0003169615565718645 -0.040196811802136925 0.011526599522382767
-0.002185200472370027 -0.010672743931927013 0.011675477098874277
0.0007361017840454301 -0.02259116506076591 0.011827230337656756
0.00045952924076363583 -0.031427599849617405 0.012264434165318515
0.001277879830779151 -0.00933283182503931 0.01522352499474051
-0.001286653833053109 0.0011501772719352838 0.02003669176124977
-0.007582530092417538 0.01725232099418218 0.013851322776480619
-0.0035994142201883302 0.005558852948717638 0.014811714094183638
-0.0029555017226698716 -0.0008075862133679432 0.017785061755514454
-0.0004002574172364394 -0.014209321627831993 0.022250197260404395
-0.005646664044571121 -0.0154970668988782 0.014706422799934268
-0.0060082668085158055 0.01734101653698028 0.017677232197287132
-0.0006367055098369266 -0.01688275341674798 0.014785725864646168
-0.0006442351835078176 -0.025221645193686044 0.014874430224597187
0.002809216025906981 -0.024509069769532016 0.016345475685442538
0.002187561859009122 -0.01680082579306817 0.019166315712464126
-0.0009488033119702072 -0.024902655550735425 0.021376543506999673
0.0034107049204889165 0.055602210386146614 0.00902159225117112
0.005113879435659305 0.04939612454686896 0.013788156648719576
0.005820932174000493 0.05368373971791115 0.007601726381467297
0.0033064283127534093 0.049677573533194457 0.003145168827518545
0.0011741509264864638 0.05453039242547783 0.005736115186323895
0.019443968484167788 0.06469631377908903 0.016453180344252097
0.0026316784301429756 0.046695019840776765 0.01173453436490741
0.022129032438674572 0.024384557638626063 0.009263451754855823
0.009861079792155373 0.042968406585648676 0.013228284593003884
-0.00631364120906343 -0.055037059256239924 -0.007170258727244059
-0.0011397114133810853 -0.022184314829819873 -0.015635638082044347
0.0012660613495218303 -0.02662397329512265 -0.01402367406618895
0.002799920299367558 -0.018731240315128444 -0.011863639175167955
0.00028582845820326544 -0.01858509574643317 -0.015029903383031229
-0.002026341032000606 0.05041156313150902 -0.013733236075530918
-0.00399565738060648 0.04945077233487308 -0.009704085887899137
-0.0060172494932036625 0.053861616967854124 -0.010527428226528275
0.00027263686578257734 -0.018574013141240298 0.010424188998373404
0.0008639725950848206 0.021525074724273705 0.007856116393793893
0.008985612949615838 4.625787370664188e-05 0.005397649668573262
0.010139951809230519 -0.0024334932371510086 0.004449455302370886
-0.011859041546904972 0.003477883861488252 0.00032026065831767235
-0.003176909143452756 0.02666268122260702 -0.009248875221794356
0.00030056317706492864 0.021865300265061675 -0.009409756233860991
-0.005539541297112148 -0.008375072062622047 -0.0042104050462671745
-0.008340255232779226 -0.0034200584639862974 0.001146653843161733
-0.006742719703978204 0.042067234157225776 -0.0056053069482308706
-0.0006345329619968284 0.04508759921955024 0.006439668526166757
-0.004285521517601417 0.036352365534034835 0.013652173790774425
0.000717319388893364 0.027015517002863334 0.009116027626978359
-0.0039753054106750904 0.04217447781941172 0.013546989413262347
-0.007338055979611787 -0.003908965255342539 0.01489534110109084
-0.0006229881603928418 -0.016213763923315153 0.010396382368375156
0.006501694743713151 0.031755998396952555 0.0009253119180990301
-0.0023858767927440704 -0.013332918601796992 -0.004325217239202915
-0.0042573561769735655 0.05439438318140715 -0.013725443935392562
-0.009912128185651667 0.04492295548312574 -0.005522781024249965
-0.001047181863932087 -0.010210655079449531 0.01053987792909155
-0.004068795345498259 -0.02340497428418439 0.011555165562186097
-0.002539804717235037 -0.0003886712853725949 0.010282564200020237
-0.005993187383671448 -0.05307795598482378 0.014390687168031666
-0.003395147879850909 -0.03059370809335283 0.01188035636582862
-0.0011111231451318188 -0.050084866050731654 0.013199139473527561
3.2508317463205925e-05 -0.050452278671803304 0.01312560670207935
-0.004180014095160776 -0.04459720488614572 0.007771020942575434
-0.007810503557377725 -0.0034473989874232763 0.013449964907745143
0.015168721226515448 0.051878292678405324 0.013405472911478207
-0.006632649898781862 -0.03399335955435059 -0.017308658566480277
-0.0013169341672489999 -0.04781276648756945 -0.016099482527333127
-0.0031029348515002643 -0.03954637042125238 -0.017038274751370153
-0.0004988842165620692 -0.04657404976167666 0.012769866811800413
-0.0011537620332446599 -0.04546820783889414 0.012669358217442677
-0.004389751564850773 0.055233975252140306 0.0007789353968850833
-0.004488714851438696 -0.03429226081800639 0.0018144289150524837
-0.0003849098079646797 -0.021328201878296427 0.015358048121579402
0.004633599802350821 -0.047633666911428896 -0.0068962809068365384
0.002344174262144859 -0.04543697254048688 -0.006789281969868511
0.0012099767525292425 -0.024452781073906443 -0.0060250284087209815
5.303180895179015e-05 -0.023175133757428128 -0.004410095531451293
0.00399560154109086 -0.04186227203433801 -0.00832224174069331
-0.0012453459602063126 0.024033277570832522 -0.017857382463231944
-0.0006215916966766202 0.023834568400732732 -0.018409718445734403
0.002587175095359083 0.0011608833448444476 -0.01685603510618416
-0.0008852185424981102 0.03825055274588705 -0.01733018638308004
0.00068207832690362 0.01732332944018518 -0.016296098057443108
0.0010578376259348563 0.0013457168811855523 -0.017215298770326536
0.019315188427140893 0.02254111510291394 0.0034795530359126264
0.016434051171455587 0.023968389052208976 0.004003136084059958
0.0010046052647878839 -0.013959457987888212 -0.0031013339337416803
-0.0019984481181732627 -0.012479783779630022 -0.0032486277899342617
2.5826135408842985e-05 -0.03353695105455037 -0.004551170290046286
-2.8165864985225948e-05 -0.03835751177680406 -0.008986928744248326
-0.0016619491885217573 -0.029081044933733705 -0.008955197271078963
-0.002180480632601075 -0.03346558867373073 -0.016778393042804457
-0.0013860287052836913 -0.010052460623647258 0.011896502415821412
-0.0035205628989968007 -0.049071023453368556 0.016820682365466032
-0.0019531297776585973 -0.011181662428610465 -0.011770291212230242
-0.00127332119704449 0.047102123459122375 -0.00036869909410565225
-0.00280160931665569 0.0460206099643158 -0.003153717728459713
-0.005667735772975547 0.04096747703552484 -0.003259404596376108
0.002738226946934583 -0.03441097537376473 0.00244009456819396
-0.00032033570101402763 -0.028948809768320462 0.0029902996984783803
-0.008821520993287594 -0.018987590365115402 -0.01716637876321963
0.001225826410980507 0.03894170907978585 -0.00024713824308199994
0.0018716814788697239 -0.02227327056778558 -0.0035214689337909233
0.02019091292561806 0.0025651873265213334 -0.001298618733777261
0.0047946571915919575 -0.021660373612663535 -0.0036575403330389457
-0.0016563015815915345 0.015468641704248807 -0.007026240128062109
-0.006344402817001153 0.04547206252065128 -0.002991529783180821
-0.008521040019958405 0.02834146821028649 -0.008997687601327558
-0.009334960887544864 0.05081317387916796 -0.004272802736108832
0.006208845755280663 -0.025198282357033846 0.006927741639452025
-0.000228598141519457 -0.04020049546818214 0.011180315371102508
0.01753709727214158 0.043733051261302884 0.007390793947560066
-0.00048473017408729016 -0.009731379626523939 -0.017784107312578006
-0.011304591708150449 -0.007903618698906607 -0.01282801265534715
0.001144045923433999 0.03139234804504506 0.00032758349549692013
0.0017798335789652245 -0.03838417508939499 -0.004419353933841582
0.003889949314951833 -0.05034955056055969 -0.016137511743325107
-0.0007487235317799232 -0.07763355564248338 -0.01129967070950985
-0.0004495329495900868 0.041581386726877494 0.00025390719321890934
-0.015046458112723008 -0.0022671609621320405 -0.010341666684659625
-0.001383626321744368 -0.07649282605606438 -0.01270852376315861
-0.006371372381918792 0.048289378264385646 -0.005924058729918836
-0.0004004206488156355 0.05333405316952635 0.004141684424409555
0.0008755738068168403 0.04618588123507164 0.0041807138712153455
0.0014515353944652269 0.020089915276224158 0.018119637637049237
0.0054824185346661215 0.040121087772293805 0.015939447217260296
0.010120407836310746 0.039398740324842876 0.016037085226193227
-0.0020593095543014607 0.036177841591708865 -0.0022313150776004102
0.004210616423022905 0.03632811397295155 0.0014896256816108856
0.0030048240503593887 0.0352427370934021 -0.0017273238409788027
0.004350052988697236 -0.046361078087510194 -0.017337309846934296
0.003962729046249133 0.04681002696529733 0.012963153638891367
0.014818337723912153 -0.006114328132805371 0.004599472211301075
0.0032451835946113224 0.0418786371892702 0.014335932816104882
0.014225459627521541 -0.010302335365307487 0.008626314507064482
0.0005217886783875833 0.040176152812227896 0.006324268662807977
0.003220708550244962 0.005764780276900171 -0.014574242463504595
-0.0016429405772052678 -0.02327609343684899 -0.009234368155909143
0.0010173255953850949 -0.0517462889983733 0.012356626326860475
0.003521324487167291 -0.05274516873164618 0.011251630516744375
-0.002851594742510535 -0.04960967644810827 0.0018918298838565444
0.007231090883667478 -0.028398116027231583 0.006857367536095715
0.003116918130185026 0.0624064462918877 0.010224079595854302
-0.00018763511839939244 0.04652388791475664 0.004960022432468792
0.016579557496256916 0.034000137894793996 0.00894166754552462
-0.0013994460668110538 -0.03823590468605757 -0.015860608733074984
0.008421653157501603 -0.06482809206773567 -0.0015126901707867187
-0.004299175948469075 -0.05820867198277041 -0.00673998174604825
0.00788773575542003 -0.05855235864343705 -0.003645635294293204
-0.0106466168334271 -0.06084813756343509 -0.01708081973326866
-0.01189320960459951 -0.056681934357214574 -0.018116967929565613
-0.0033790292328704946 -0.0468922707751119 0.011335322796333855
-0.010189995358996604 -0.040543424487255716 0.0124660769824143
-0.00020970810972464576 -0.009602322307405643 0.010668162714274718
-0.008059573280685704 -0.051033848732769935 -0.026294140436223447
-0.008412070685869555 -0.038951686177816316 -0.021418198238875873
-0.01222417438856481 -0.03358929136338355 -0.021934622579302638
0.0010012383526293433 0.03991102267223777 -0.018607622330644058
-0.011401840632861033 0.008940017630466111 -0.013269620474273967
-0.007736912494610914 0.0042161201612923764 -0.013350268480449446
-0.008357489764006508 -0.023306511299006984 0.0059021681585571155
-0.011885697909615498 -0.01914702028280401 0.006469548468912594
-0.011506568238921582 -0.04413704007793233 -0.02566149173824402
-0.004001180788686128 -0.0423522483703508 -0.016244024252043448
0.0019456593110360675 0.016288263127040684 -0.01658804072675713
0.015331321742202197 -0.06461590164904012 -0.013314881478864816
0.0161913338414464 -0.03644979979800629 -0.005609221168434693
0.014312826251828108 -0.07161544410218043 -0.012501035947388422
0.001187247568465163 0.04392802360110729 -0.001777288495349858
0.019866501322410704 -0.028391516279191446 -0.0043997122690774175
0.017678424580468838 -0.04244320820731095 -0.008773796226354573
-0.002180359110341168 0.04451665788569247 -0.000826196912797839
0.0031165532499901325 0.05254829170935392 0.005985239247647289
-0.006926538448496992 -0.052356440294927226 0.007787230967944768
-0.008449125794516668 -0.04518192205791046 0.00930724947164966
0.01679406277664253 0.004728944384661975 -0.0006238864507033161
0.003701810398879684 0.04915871794973768 0.003349696163653535
0.0007201025740798781 0.010580390758206869 -0.014123367311531434
0.0057036350346237365 0.04766751349715991 0.004621159708134103
-0.0025480760620273145 -0.004228062357971456 -0.00256663729052557
0.0014641854465124783 -0.028740484129045632 -0.009711927178108143
-0.00432072847362597 -0.04096075424012399 -0.0031734334910061696
-0.002797294430475789 -0.04388421797487654 0.016172720507424975
-0.0005469705631564369 -0.0476942501765482 -0.015905518887706045
0.0007347499099680261 -0.004294710817297039 -0.0036419693821286687
0.0027155849983382238 0.03493674681477636 -0.01935648749022281
0.00011429195511062552 0.05906043706535839 -0.021416358056519858
0.00116085022930445 -0.00980069286490778 -0.016740601171637014
-0.002168596705318288 0.03463312196890128 0.011839002211380628
-0.0009267235274143582 0.06269553325195142 -0.022059165124352416
0.0019361134760395866 -0.05270067493684788 -0.005511716940117278
0.01896473922150319 -0.030569730942025048 -0.004057401682595353
-0.008858132611203237 -0.04888245386416607 0.019139122449043137
0.001406037247541646 0.028983280264469922 0.01057453014029625
0.00860577519254654 -0.033551693861643125 -0.004918989005952328
0.0004393995576145654 -0.04215967593766656 -0.007054995950301386
-0.008582548316840993 -0.052805803259389175 0.018814569565776852
-0.00757914192159501 -0.046325084249630784 0.013723948330238274
0.006972886601807923 0.005318972702365364 0.02086975345881183
0.012826792011625631 0.002471273243079545 -0.00024022822230355937
0.01317288800018281 -0.015769420432621202 -0.002359845730886782
-0.0010147473027600556 0.03569800783077678 0.010332512984906794
-0.011424528650307512 0.032806582630786806 -0.009043868087674423
-0.005858995275915255 -0.04609592864295359 0.003308021951733008
-0.0002258491160685956 0.05402672461915352 -0.014769208513033118
-0.00016506110948720756 0.022058874817485766 -0.002195565415062965
0.0046388038260391454 0.027555657057388536 -0.0010368309717807553
0.006285778954369782 0.02188550648117568 0.0018225296873777468
0.0016663595787549978 0.05181474980611199 0.0025663665978088545
-0.012098731940165372 -0.012931008454675125 -0.017731362859419435
-0.0011554180944884185 -0.04075300433960989 0.011696182836282754
0.007039846651223606 0.0012161109371406366 0.018852844259749497
-0.0020084031821183696 0.01857815175477802 0.0073185864524301925
-0.002396198943017654 0.048558057892001336 -0.021839552128664542
-0.0005665353695671059 0.05043611536406615 -0.020310822542528632
-0.0007683175198606722 0.04224770902004845 -0.009360034115325605
0.010582693833032383 -0.02681534987984621 -0.005245031980712408
-0.0030531122827868497 -0.038673723445261605 -0.009585293422473166
0.0066520026391376965 -0.03344943397320451 -0.008192608382700882
0.0013019584260570583 0.035105839272594475 0.0030962274204561
-0.0012523326681350652 -0.032154435518447565 -0.004983427692596289
0.0020295462413957837 0.04697742317790686 0.002950206340582419
0.0018470211254531714 0.014762717412251486 -0.000826581063187908
0.0016370305802509164 0.05398486415823546 -0.020436684308922908
-0.002412163493300013 0.0435660280992659 -0.021237882082637213
4.191821614816528e-05 0.05418136997121871 -0.01622344670413729
-0.004868791826307034 -0.019613449487965933 0.01688514889965378
0.009827470961010044 -0.018466348083319487 0.013106359352457724
-0.006219508752817752 -0.01160639460963813 0.018018143426253717
-0.0001694015621471628 -0.05116337909337551 -0.009996913164313835
-0.002765891234574746 -0.05645724821101098 -0.007342448667958506
-0.008737362703290613 -0.04878331368371363 -0.009110983725365862
0.010129051569736662 -0.001614902449346256 -0.0010853808043579758