# vtk DataFile Version 2.0
Really cool data
ASCII
DATASET UNSTRUCTURED_GRID
POINTS 584 double
-1.0 0.0 0.0
-0.9600374798207896 -0.027590413451835553 0.04
-0.9589620457797374 -0.028177574718636023 0.0
-0.9553815213922792 0.019675326217199102 0.04
0.6719637381218919 0.02110482676547816 0.0
0.6414775595248179 0.020020515529780993 0.04
0.6571281419012174 0.06 0.0
0.6240641012293764 0.022292119262118645 0.0
0.687851041884645 0.021313940245698455 0.04
0.7030120427199962 0.06 0.04
0.657128141901218 0.06 0.04
0.7030120427199952 0.06 0.0
0.6885310613992013 -0.0196061899732657 0.0
0.6720046167250797 -0.020579604775701428 0.04
0.6407079554435648 -0.019738458112036637 0.0
0.7171469290115033 0.021165332718839136 0.0
-0.7921016077200962 -0.06 0.04
-0.7604373514312079 -0.019298436119384588 0.0
-0.7479973317145423 -0.06 0.04
-0.7479973317145417 -0.06 0.0
0.7030120427199962 -0.06 0.0
0.7030120427199952 -0.06 0.04
0.6571281419012174 -0.06 0.04
0.7479973317145417 -0.06 0.04
0.7325903506195701 -0.020274227246539274 0.0
0.7176321617908783 -0.019839353713154383 0.04
0.7604373514312079 -0.019298436119384588 0.04
-0.8488906624897727 0.019856366527450334 0.04000000000000001
-0.8052789150181434 -0.019306901564895652 0.0
-0.805541091654972 0.020469431563422978 0.04000000000000001
-0.8203038938742353 -0.020636147377884773 0.04
0.897529295217204 0.022569895749215793 0.0
0.8488906624897727 0.019856366527450334 0.0
0.8569454102823642 0.029774901726562965 0.04
0.8777357995360431 0.06 0.0
0.9553815213922792 0.019675326217199102 0.0
0.95349853104827 0.02147987272312249 0.04
0.9103536180674616 -0.021283841161765512 0.0
-0.5450807564691462 -0.01715484187473429 0.04000000000000001
-0.5372746904547943 0.02439300391790418 0.04
-0.49049502097572617 0.000359712426279548 0.04000000000000001
-0.5409244119327052 -0.005150142234760652 0.0
-0.48901428549955095 -0.02776609156780287 0.019771763033692314
-0.4642419910175897 -0.06 0.04
-0.43891524330526177 8.673617379884035e-17 0.04000000000000001
0.7479973317145423 -0.06 0.0
0.9600486361512215 0.06 0.04
1.0 0.06 0.04
1.0 0.06 0.0
0.9192992165657531 0.06 0.0
0.7479973317145423 0.06 0.04
0.7309057796957548 0.02177174945441851 0.039999999999999994
0.7479973317145417 0.06 0.0
0.7613659684934695 0.020945326906433456 0.0
0.7736855084518748 0.020914979208800512 0.04
-0.8570647961856006 -0.015388027432140593 0.0
-0.8569454102823642 0.029774901726562965 0.0
-0.8649535140731797 -0.02016838668923704 0.039999999999999994
-0.1726925416005594 -1.214306433183765e-16 0.039999999999999994
-0.22806385632140147 1.0755285551056204e-16 0.039999999999999994
-0.2006519843784229 0.06 0.0
-0.22806385632140147 -1.1796119636642288e-16 0.0
0.438611990705585 -5.252150912499892e-05 0.04
0.41358849559293387 -0.06 0.04
0.4135884955929341 -0.06 0.0
0.4642419910175897 -0.06 0.0
0.4782715374234063 0.0302584611690398 0.019894876072988572
0.513903464641242 0.06 0.0
0.49049502097572617 0.000359712426279548 0.0
0.46424199101758934 0.06 0.0
0.46424199101758934 -0.06 0.04
-0.8164681441220105 0.022269284396602723 0.0
0.48912437490067595 -0.00041996788971368666 0.04
0.4642419910175897 0.06 0.04
-0.8353421249080566 0.06 0.04
0.8649535140731797 -0.02016838668923704 0.0
0.8973163514988121 0.02144006532192878 0.04
0.5625923446839085 0.06 0.04
0.6103276788742331 0.06 0.0
0.5943416245309461 0.018901239582525348 0.04
0.5790918012159274 0.021628695864523574 0.0
-0.593631917725493 -0.01946781888421301 0.04
-0.6103276788742336 -0.06 0.04
-0.6407079554435648 -0.019738458112036637 0.039999999999999994
-0.6264545933043166 -0.021459100211208025 0.0
-0.6103276788742331 -0.06 0.0
-0.6103276788742336 0.06 0.0
-0.6240641012293764 0.022292119262118645 0.04
-0.6414775595248179 0.020020515529780993 0.0
-0.5943416245309461 0.018901239582525348 0.0
-0.5790918012159274 0.021628695864523574 0.04000000000000001
-0.5625923446839077 0.06 0.04
-0.6103276788742331 0.06 0.04
-0.5625923446839085 0.06 0.0
-0.7325903506195701 -0.020274227246539274 0.039999999999999994
-0.7176321617908783 -0.019839353713154383 0.0
-0.7309057796957548 0.02177174945441851 0.0
-0.7736855084518748 0.020914979208800512 0.0
-0.7613659684934695 0.020945326906433456 0.04
-0.6571281419012174 0.06 0.04
-0.6719637381218919 0.02110482676547816 0.039999999999999994
-0.7030120427199952 0.06 0.04
-0.687851041884645 0.021313940245698455 0.0
-0.029521960903255984 -0.06 0.04
-0.05860957814939871 -6.938893903907228e-17 0.039999999999999994
-0.05860957814939863 5.898059818321144e-17 0.0
-0.08769719539554167 -0.06 0.0
-0.08769719539554144 -0.06 0.04
-0.2823507532564078 -5.204170427930421e-17 0.04
-0.25547572826437986 0.06 0.04
-0.25547572826438003 0.06 0.0
0.38751191920162714 6.938893903907228e-18 0.0
0.3352618020299945 -3.469446951953614e-18 0.0
0.36192316205531716 0.06 0.04
0.3619231620553172 0.06 0.0
-0.36192316205531716 0.06 0.0
-0.335244821032008 -1.1796296425746478e-06 0.0
-0.3352618020299945 -3.469446951953614e-18 0.039999999999999994
-0.38745316199969926 -7.894682722445895e-06 0.0
-0.3619231620553172 0.06 0.04
-0.3092257782484355 0.06 0.04
0.28235075325640757 5.551115123125783e-17 0.039999999999999994
0.30922577824843556 -0.06 0.0
0.335244821032008 -1.1796296425746478e-06 0.04
0.3092257782484355 -0.06 0.04
0.36192316205531716 -0.06 0.0
0.38745316199969926 -7.894682722445895e-06 0.04
0.3092257782484355 0.06 0.0
-0.38751191920162714 6.938893903907228e-18 0.04
-0.28235075325640757 5.551115123125783e-17 0.0
-0.30922577824843556 0.06 0.0
0.6103276788742336 -0.06 0.0
0.593631917725493 -0.01946781888421301 0.0
0.6264545933043166 -0.021459100211208025 0.04
0.4889627886584896 -0.027603176797077415 0.020155725176282127
0.583287522480325 -0.023728770665855194 0.039999999999999994
0.5450807564691462 -0.01715484187473429 0.0
0.5409244119327052 -0.005150142234760652 0.04
-0.48912437490067595 -0.00041996788971368666 0.0
0.3619231620553172 -0.06 0.04
-0.657128141901218 0.06 0.0
0.9600374798207896 -0.027590413451835553 0.0
1.0 0.0 0.04
0.9589620457797374 -0.028177574718636023 0.04
0.5625923446839077 -0.06 0.04
0.5625923446839085 -0.06 0.0
0.7766984080639845 -0.02052537972713625 0.0
-0.438611990705585 -5.252150912499892e-05 0.0
-0.583287522480325 -0.023728770665855194 0.0
-0.9600486361512215 0.06 0.0
-0.95349853104827 0.02147987272312249 0.0
-0.9192992165657539 0.06 0.0
-0.9192992165657531 0.06 0.04
-1.0 0.06 0.0
-0.14473309882269625 -0.06 0.04
-0.14473309882269605 -0.06 0.0
-0.11621514710911887 -1.214306433183765e-16 0.0
-0.17269254160055947 1.1796119636642288e-16 0.0
-0.14473309882269625 0.06 0.0
-0.11621514710911884 1.214306433183765e-16 0.039999999999999994
-0.8353421249080566 -0.06 0.0
-0.8353421249080575 -0.06 0.04
-0.8973163514988121 0.02144006532192878 0.0
-0.897529295217204 0.022569895749215793 0.04
0.11621514710911887 -1.214306433183765e-16 0.039999999999999994
0.05860957814939871 -6.938893903907228e-17 0.0
0.05860957814939863 5.898059818321144e-17 0.039999999999999994
0.08769719539554144 0.06 0.04
0.6103276788742336 0.06 0.04
0.5139034646412424 -0.06 0.0
0.9096368506350345 -0.020963842829632554 0.04
0.805541091654972 0.020469431563422978 0.0
0.8052789150181434 -0.019306901564895652 0.04
0.8203038938742353 -0.020636147377884773 0.0
0.08769719539554144 -0.06 0.0
0.08769719539554167 -0.06 0.04
0.9192992165657531 -0.06 0.04
0.8164681441220105 0.022269284396602723 0.039999999999999994
-0.9103536180674616 -0.021283841161765512 0.04000000000000001
-0.8777357995360431 -0.06 0.0
-0.9096368506350345 -0.020963842829632554 0.0
0.8570647961856006 -0.015388027432140593 0.04
0.7921016077200956 -0.06 0.04
0.8353421249080566 -0.06 0.04
0.7921016077200962 -0.06 0.0
0.4135884955929341 0.06 0.04
0.43891524330526177 8.673617379884035e-17 0.0
-0.7921016077200956 -0.06 0.0
-0.08769719539554144 0.06 0.0
0.14473309882269605 0.06 0.0
0.1726925416005594 -1.214306433183765e-16 0.0
0.11621514710911884 1.214306433183765e-16 0.0
-0.029521960903255984 0.06 0.0
0.0 0.0 0.0
0.17269254160055947 1.1796119636642288e-16 0.04
0.14473309882269625 0.06 0.04
0.0 0.0 0.04
0.2006519843784229 0.06 0.04
0.22806385632140147 -1.1796119636642288e-16 0.04
0.22806385632140147 1.0755285551056204e-16 0.0
-0.6720046167250797 -0.020579604775701428 0.0
-0.7030120427199962 -0.06 0.04
-0.7030120427199952 -0.06 0.0
0.25547572826438003 0.06 0.04
0.30922577824843556 0.06 0.04
0.25547572826437986 0.06 0.0
-0.02952196090325599 0.06 0.04
0.2006519843784232 -0.06 0.04
0.14473309882269605 -0.06 0.04
0.2006519843784229 -0.06 0.0
0.14473309882269625 -0.06 0.0
0.2823507532564078 -5.204170427930421e-17 0.0
-0.36192316205531716 -0.06 0.04
-0.41358849559293387 -0.06 0.0
0.5372746904547943 0.02439300391790418 0.0
0.5139034646412424 0.06 0.04
-0.5139034646412424 -0.06 0.04
0.41358849559293387 0.06 0.0
-0.7171469290115033 0.021165332718839136 0.04
-0.7479973317145417 0.06 0.04
-0.7030120427199962 0.06 0.0
0.08769719539554167 0.06 0.0
0.029521960903255984 -0.06 0.0
-0.02952196090325599 -0.06 0.0
0.02952196090325599 -0.06 0.04
0.02952196090325599 0.06 0.0
0.029521960903255984 0.06 0.04
-0.47805793986482265 0.03008719549728311 0.01940109733029794
-0.4642419910175897 0.06 0.0
0.6103276788742331 -0.06 0.04
1.0 -0.06 0.04
0.9600486361512205 -0.06 0.04
0.9600486361512215 -0.06 0.0
-0.3092257782484355 -0.06 0.0
0.877735799536044 -0.06 0.0
0.8777357995360431 -0.06 0.04
-0.41358849559293387 0.06 0.04
-0.4135884955929341 0.06 0.0
1.0 -0.06 0.0
1.0 0.0 0.0
-0.14473309882269605 0.06 0.04
-1.0 -0.06 0.0
-0.9600486361512215 -0.06 0.04
-1.0 -0.06 0.04
-0.7921016077200962 0.06 0.0
-0.9192992165657531 -0.06 0.0
-0.9600486361512205 -0.06 0.0
-0.7921016077200956 0.06 0.04
-0.7766984080639845 -0.02052537972713625 0.04
-0.5625923446839085 -0.06 0.04
-0.5625923446839077 -0.06 0.0
-0.877735799536044 -0.06 0.04
0.7921016077200962 0.06 0.04
-0.3619231620553172 -0.06 0.0
-0.7479973317145423 0.06 0.0
-0.8777357995360431 0.06 0.04
-0.4135884955929341 -0.06 0.04
-0.46424199101758934 -0.06 0.0
0.513903464641242 -0.06 0.04
-1.0 0.0 0.04
-0.877735799536044 0.06 0.0
-0.30922577824843556 -0.06 0.04
[...]
POINT_DATA 584
VECTORS displacement double
-0.04550058025153152 0.013401444079704712 0.024869701822516382
0.00040418608221234355 0.01754455984427204 -0.0057258934397787205
-0.02047896290739301 0.03684954931977658 -0.013293425870051338
-0.013047398431143201 -0.0015137812265472845 0.012666866251608946
-0.007596499982360901 0.000951960591866322 0.02625750505278518
-0.004036103398211121 -0.007580779903107232 0.010869431671062302
-0.03817194051882368 0.006489712193472135 0.026124309562294133
-0.003654425652892449 -0.0048082460524682185 0.006117308218804618
-0.0022863836015296008 0.004100862814746527 0.021516022054691678
-0.04313363563106504 0.013189204441934107 0.019006310528773048
-0.03624227120032136 0.00894967316407624 0.018147385400228817
-0.04794598924058862 0.011471765287484776 0.021506942649770957
-0.0025699650318581663 -0.0025384182564841488 0.03233645801330147
0.0005444858456542803 0.005849399632294721 0.021160363638234855
-0.0008340246592003244 -0.015391992951576837 0.021513894438546174
-0.011388734029139104 0.005759944513655359 0.021730835728694498
-0.0054662732733264776 0.012772125820614441 -0.010312296704480499
-0.014910202888371991 0.029331195929266803 0.018691234108188785
0.010478457953684418 0.0009834750744308314 -0.0020508617724798736
0.00039809099058879527 0.043815793047384075 -0.011107611363495602
-0.02893918095803718 -0.009620139286819781 0.03970563794504387
-0.02321101324340457 -0.01130385818496214 0.01983794928743014
-0.025372102274670117 -0.018875961895328367 0.024953350709597942
-0.008042264509825151 0.015688297726028096 0.004887431012649436
-0.0027139400838053825 0.005699420799433571 0.01799686234871189
0.007354256993930086 0.0009527136622509308 0.01711374960657802
0.013347992067184426 0.010818986447158271 0.0005872024160473969
-0.03255812842375858 -0.00710927593526792 -0.023187537410235146
-0.020771412312461383 0.020767738323804744 -0.0010437289408825516
-0.030134836092253457 0.007888066791308136 0.007674591945292752
-0.015677119779479415 0.0028409604300766826 -0.011798353825030718
0.013083977514072725 0.013045878135498741 -0.0016617074223438616
0.017460573071878288 -0.005956924735633033 -0.01909962846516806
0.009128406218622251 0.02283454150110556 -0.012601582941774039
-0.037372166283312726 0.0011479794300419137 -0.02097701733314215
0.0019411402406529074 0.0004073181824804492 0.00011406131535813824
0.008303211568036607 0.01069383475694984 0.0010669635764011622
0.010211111691755393 0.0004705823249230045 0.0029408920841327867
-0.008902812302600704 -0.01532713086965887 -0.03364821188138063
-0.01726875403001455 0.002295562451017158 -0.024369214797438973
-0.03241983392428251 -0.013658750958126844 -0.017214353789899203
-0.025914388520288417 0.003481156445088856 -0.036676879849191754
-0.015063221533620214 -0.006819339925949335 -0.02271633685055969
0.025419990633270464 0.011282670303844918 -0.005162852119600172
-0.030156579222386876 0.0017227468037069697 0.0014567422417742473
-0.019741940912753875 0.011747411103864817 0.012521743241137836
-0.03116130708737323 -0.029478551624467397 0.007561553973468425
-0.004000973213032886 0.06141391866815176 -0.014205586812622772
-0.04394499178858155 0.06272994811741597 -0.017628538711979107
-0.05733246352459763 0.027131832266321976 0.003451916654819068
-0.046521568574070214 -0.00365706919746169 0.0017220530960173023
-0.0011469554771085398 0.00850298076681939 0.012330271173760003
-0.05472969688060416 -0.0007021095929699578 -0.0007451349556652803
-0.0075823173001839965 0.002180307640251917 -0.0039132280517598225
0.0039958634185195165 0.008294581383365933 -0.004430653965505191
-0.014658425896652847 -0.02204707511584003 -0.027131575109784162
-0.035297628016230785 -0.009029165542218921 -0.01737896202827131
-0.009305830856136541 -0.024916950158307107 -0.03051791415073371
-0.010258952987166007 0.008960615517369467 0.016451377438123208
-0.021734226472626083 0.011917116313768855 -0.0014824945903939518
-0.047756485330413816 -0.03577296089008585 -0.02557437654360561
-0.029185030018651584 0.0053439316313546766 -0.009686162658157886
0.02756673898741386 -0.0016313376874253337 0.0014141984829726625
-0.040964710822427655 -0.005537113162221649 0.020406013468269302
-0.03977006367536152 -0.009244507133008261 0.019818132279959957
-0.042410439762929734 -0.007556121840816616 -0.009053779662648292
0.01690849381453619 0.006150428933450845 -0.023618924770863428
-0.00022146006117522833 0.01249322241462144 -0.029996536700009513
0.024489417879444482 0.0038998805307171014 -0.029960445513794468
0.006108791054678706 0.012064502565237558 -0.011161466650104038
-0.043654228956391816 -7.5810356633326e-05 -0.004321360062699108
-0.03506688991075912 0.022415535173661873 0.003947062201636299
0.020471144808697547 0.0028062264522909293 -0.027965811712430688
0.005012529037152018 0.0024327175624011582 -0.0046961522757147985
0.03612374456560412 -0.004587255354545469 -0.01215891771015224
0.022480811301765394 -0.0024433847667805725 -0.005366932955341556
0.014192326843039763 0.007934324836742201 -0.00246422607666843
-0.023352651949737336 0.012400850174702162 -0.019018826831377785
-0.01907279847460047 0.011383236901288118 -0.00021028581235252625
-0.005073869935375613 0.010271891150051126 -0.017911114782874014
0.006314359948910088 0.011880711424264235 -0.023904883614241094
-0.016697472880263586 -0.034074988510952496 -0.031191041912054303
0.0002844007326329327 -0.010618789267253691 -0.02853562081329881
-0.0067824670285411386 0.00791247597057318 -0.0038216995267201137
-0.00960970335937765 0.010846591953857745 -0.019331913852467544
0.0010275087197589216 -0.011421592358981755 -0.033149941115812515
0.07128311598519466 0.021240356693837913 0.00878263824809179
0.016271923421764437 0.012508637688330045 -0.003546040159150949
0.013659055531275222 0.007295911123864212 0.005072023129891105
0.012179736905112254 -0.005000063455092907 -0.018888920181622828
0.007765263450411491 -0.029816333750847957 -0.03134165940796538
0.02021309436872605 0.05365565999323246 -0.009757858506491744
0.0777853974599455 0.006040012315329369 0.0026201217275766357
0.027431785520371434 0.06697950818072886 0.014403284121434247
-0.017886263306472867 0.019393406260321964 0.02829559356239989
-0.016728377874323023 0.04025023480909378 0.03206238235440258
-0.019483376215858873 0.019741061966106786 0.04864955982854792
-0.03974036235680266 0.01611928843509407 0.035878670005454416
-0.03680063058947476 -0.0035676401941754448 0.043211419223597905
0.06148869007065552 -0.03871116048057195 0.01414087978811075
0.0017021780872615903 -0.027245515569223572 0.027928507627602506
0.06064525553288051 -0.011304971187658882 0.03878705826834079
-0.008223658727072466 -0.0032322603945449534 0.04153223932501754
0.006848365812343772 -0.010614454352070948 0.0066502736546954575
0.003675971030717539 0.01465283031999447 0.004310336833571226
0.009555256038281085 -0.0007094074979981051 0.00618208923588833
0.02096202102030457 -0.0025370862757060483 0.020285401687200423
0.027857851264583375 0.005462237453220409 0.020547077716353737
-0.02254609478298748 0.012106158469506237 -0.012477468883657462
-0.04347017375805488 -0.014584693078008231 -0.010915094853636217
-0.0583007493309637 -0.012820551534000163 -0.02759697324866515
0.03033656828354597 -0.005036437355719726 0.023341793681796782
0.042587121564452025 0.006014011510831124 0.019967087247179445
0.02403886687269059 0.0227324562282006 0.024443582362698033
0.02518171690997247 0.027847443844552733 0.03158953084389285
-0.046627544771692994 0.016821675715823298 0.02104432690160381
-0.0371094188599691 -0.0010243831842507375 0.007339410595681242
-0.02963430856028751 -0.0002603171303070344 -0.004724549457980832
-0.037800336268444465 -0.009727563550155392 0.018087646153075794
-0.035794317501767155 0.013209063779841605 0.009484375689430438
-0.038950364829197524 0.009229168567667614 -0.004435433563244797
0.03008640892530353 -0.00011837284264203313 -0.014834347570345956
-0.01797873289488643 -0.005162033827457595 -0.007790828037736231
0.029803829840886725 -0.002687873613523287 0.005538780724649924
-0.03471152688634353 -0.008863757650498974 -0.011890501853340299
-0.02708463287433821 -0.0295330356966565 0.026363701447055177
0.021703848933003717 -0.003658480582137473 0.01662743055315864
0.03862288352723974 0.0286601295887233 0.024386099215399876
-0.03225349914356909 -0.011575098886363853 0.007425996615756572
-0.038948925551188784 0.006111693445648716 -0.010561920038724642
-0.062027507265675075 0.008340289976735945 -0.008530883723669815
-0.027619857725623646 -0.029060131760516892 0.016128148002200988
0.0017976015669919285 -0.01866817769165176 -0.005897981721424218
-0.003552552226050927 -0.0033503183957478326 0.003970358574685039
-0.007684487989525738 0.0013987225762272849 -0.027474457906141333
-0.0028070521932378315 -0.013307175646132735 -0.020806319026942684
0.008406626569775456 -0.002282487191888092 -0.03576374677186205
0.014233379912777282 0.004097798521241082 -0.03817624633080678
-0.03210670720881979 0.0018876329619325557 -0.014119483678389553
-0.03974404374771233 -0.025301946776328615 0.021107146617188256
0.05961895632192205 -0.02068571697685377 0.024531658333499573
0.010534870532393667 -0.04313691925778777 0.0163810745824578
-0.01513871852910607 -0.005338762451998507 -0.017946067847005465
0.006161078192312998 -0.0197119927003247 0.007284579475218588
-0.04608299100204337 0.00045209548593277683 -0.01726609937014478
-0.038402926473354144 -0.016550785130817813 -0.01399972515927163
0.0045726411487203794 0.005253013748752028 -0.0056276069570767905
-0.029779271423137296 0.007108393052007488 0.008793362145733548
-0.01914684833982298 -0.02995014945288706 -0.04202798803142213
0.03146902587557313 -0.003428302699179213 0.0285439875376541
-0.026302945744798523 0.017597048066822524 0.009233409531010494
0.04432677373214769 0.023500285307137277 -0.007023858273615187
0.0686428720891432 0.03707931167939139 -0.01295467218373517
0.012118723610203393 -0.005343300082978384 0.05337022107853886
0.027647424113902894 0.01657674026947763 0.02635193629484777
0.02192826737376034 0.00935997421847701 0.024193938136649745
-0.00576332980141511 -0.013059387060608626 0.011857370415294268
-0.015408606598134299 -0.006433167964033581 0.004997702019923667
-0.03965492441831877 -0.04177838976299676 -0.020238693550633558
-0.002382697025003805 0.005506438339351624 0.018276256038576327
-0.014349326709806166 -0.010542878195311241 -0.02295145054484397
-0.010898425706840572 -0.013523030667514655 -0.019120580680233375
-0.03177665453357837 -0.018791053947266746 -0.026373160741695087
-0.03145107007775026 -0.03019454075756783 -0.028788742016875205
0.021961132197574954 -0.006430176022042604 0.02228356910536495
0.012606829801050825 0.003957081842609761 0.004994927876506424
0.009502175249194554 0.005780566124905041 0.009208247164202028
0.009593732296109457 -0.023760256707774374 -0.0013923266338956841
-0.02540270124657455 0.003980650801125194 -0.0025938390813390238
-0.04089118660965396 0.0014904159877653185 -0.031224639877475313
0.005860474856596788 -0.004151110496026467 0.005250936030500521
0.002282575250448817 -0.027289624258409553 -0.022557325213706687
0.012608446107732771 -0.0015920169917597628 -0.01054363882584048
0.014838709037510252 -0.004714818060396277 -0.013341704224810506
-0.006200595876460019 0.033212904110079294 -0.00890909675126999
-0.005691582102286662 0.02213715451533638 6.7237947276209e-05
0.005007591471989802 0.03985252871163523 0.012145899333519006
0.010966419638359474 -0.01426958856074126 -0.016718484765517672
-0.0030417168638427394 -0.012154192228568589 -0.027814269172873725
-0.017662198200816766 -0.032617355437468146 -0.03582918602215172
-0.012312491706162767 -0.009558078378192902 -0.032840809571964655
0.019655102641320723 0.007641213630463032 -0.010329184525023296
-0.004199356348745789 0.0032739458873347034 -0.01266864414872389
0.002449336450855371 0.01123904952509898 -0.00537272199517834
-0.008543834239074498 0.0013495359199133556 -0.010203586222033299
0.018181646002039503 -0.005141277696964815 0.01694101077971703
0.02758883350501613 -0.004741323182114516 -0.0014530082189853884
-0.012952772166146001 0.030379243646593862 -0.009277082103357924
-0.029202870236224362 -0.03738479854060189 -0.02494854736279145
0.027313362494300077 -0.03701837475354252 0.0025994201950139844
0.03690653050715901 -0.000362295780091576 0.0006519191356538974
0.025932301225399895 -0.004778790802715859 0.007687948080497963
-0.012593808287867428 -0.008879786118968204 -0.020544610179020033
0.005633603004011722 0.0011730864505353975 0.001316381994166024
0.02920305490218959 -0.0035011356412968735 0.014689977113228603
0.020029869860617094 -0.022060721575881754 0.004384305381008193
0.004416084758175276 0.008975724262616669 0.0006729923889522996
0.028547272932082833 -0.01658591585744186 0.0009981426585038145
0.035107759093833894 -0.003305051843115734 -0.008040235859885326
0.0416618210881502 0.005111694464971902 -0.010697326916250737
-0.018152166013278712 0.03164116549743863 0.010831821353108343
0.001944697536629575 -0.010945406897473172 0.002967345556689962
-0.006868720923087 0.03589727830552802 -0.0099673270870063
0.028616724796399595 0.011380706400132763 -0.0064652115994402095
0.028482332878469192 0.0130338934691561 0.011641871665649823
0.03709747722798539 0.02555684545459421 0.003541053803824657
-0.015281930532876617 -0.0013979781988097122 -0.013836943729098782
-0.021606183826448324 0.006666059601216287 -0.009783665844927637
-0.011461519118111177 0.015241217085509904 0.008330508095389039
-0.008092096654812602 0.020086321511520223 -0.021429580198895626
-0.003069040714461319 0.0258906101418172 -0.0059097017603207905
0.04301966044721595 0.013900089207362215 -0.005068055394985461
0.03237271312671702 -0.011526024784708514 0.009429882853779933
0.02278023070239147 -0.026902258500653243 0.019818527863853897
0.013935036214088998 0.014522368932047844 -0.04000405307101163
-0.008688392569271595 3.2879859645165654e-05 -0.01650222694271088
0.026371470069399435 -0.011152693945505011 -0.01935382484968863
0.013551919766864538 -0.0014268050814372122 0.021392654254003635
-0.016221248241508827 0.012402450506670186 0.05220338678108783
0.036006065806180515 -0.040293640296521514 0.049896345071148984
0.0583703105429391 -0.00041832876683662673 0.05239872834290878
0.01670471792450559 -0.03557893611203651 -0.005943474088989752
-0.0057286973464798175 0.010921266116337043 -0.004393011703931656
0.005611214979779507 -0.01322871683728584 0.007492453105226164
-0.0036925934212230656 0.007370230514660822 -0.0011140508023163402
-0.003411794968048206 -0.01907938496141973 -0.0147068047085042
-0.006490086931056821 -0.008370095013550153 -0.008089699147442068
-0.026086041190625353 0.004622444399643433 0.003420195511352891
-0.01512865461084337 0.02993380706127629 0.03182645461420276
-0.02783828233727414 -0.009431619777168115 0.011082495461109386
0.02166791756875091 -0.004136608844046297 0.018975482138203843
0.013847199643789165 -0.021027074063688745 0.022339092580059654
0.021773610593721373 -0.04697169833314289 0.03718649284449245
0.02051474601198397 -0.011023844070874408 0.0020160479169400425
0.0032376897034624677 -0.02186542363534616 0.007586616657196602
-0.004844444111207055 -0.01747174450906075 0.0057994219232223344
-0.024569587589273672 0.011969507254554002 0.02529362670495423
-0.0325625895641735 0.024818081441335266 0.029119295740463298
0.035891300418531336 -0.03448175078150127 0.03445733126994614
-0.030004564502831146 -0.012319313995063355 -0.013430012630419694
-0.03223474978762336 -0.021940351995734287 -0.005084721488770037
0.0005895583863829209 0.0499166468860474 -0.010020707416237836
0.00028695258572317074 -0.009964701460391162 -0.027574441969894916
0.010130018550894496 0.02873353778092619 -0.01243951304639541
0.029875692952539508 0.03558457703970997 0.038413856113921216
-0.02584524638460111 0.01008047245457874 -0.03966041475556979
-0.012609782287991141 0.03173321052547064 -0.024980032092256892
0.032520699160995155 0.018318260358511636 0.03218231532645648
-0.012567770244059648 -0.01159310648622014 0.017255370070124832
0.0270565402818737 0.009793310776668977 -0.023229433036510434
0.01788180410189535 -0.00141201601283209 -0.04582936128475878
-0.011295033198806667 -0.026341485158107896 -0.01929944101625732
-0.04287520836693406 -0.02074705175362613 -0.02440087511782376
0.022201336013364114 -0.01350940046325324 0.015396355136900918
0.03312257465556048 -0.012522282850581684 0.05850267198365696
0.035823004171765156 -0.0027995660025070474 -0.02686020704960963
0.025583974730936352 -0.023082475305593805 0.0130694177512598
0.02687238218744692 0.010954629841224226 -0.007580270939898385
-0.04719572897208567 0.005254823549867529 -0.024169488289103664
-0.029505102129438788 -0.020815140117629735 0.035431092491236715
0.023553390971905234 -0.001059495968323808 -0.013558509704202661
0.03634105495508857 -0.012559866015778917 -0.006175991551285197
0.026750975704481664 0.0032821126585256236 -0.01269056507434568
-0.025063581476643483 -0.023266454058176 -0.010875460171279692
-0.014911008837616606 0.004955683694438609 -0.0291669461445612
0.017519247456356305 0.004206255949291381 -0.011666103217649887
0.05000282209624981 -0.03976805170412329 0.033175362494464775
-0.018332298869143032 0.001355951784509227 -0.02695067908763834
0.0025229826044674583 0.039369005361805556 0.01807670713040891
-0.021872439466247784 0.007873233599793326 0.02534168364289217
-0.055085598393180696 -0.011452399300488709 0.003929625822233571
0.020880915325672787 -0.01706904246084536 0.0421473614723727
-0.002232357033128033 0.008771743380582895 0.004355150821429775
-0.014383148642115736 0.0012485541307261409 0.01961205967539247
-0.003322710345945737 0.04578390638061858 -0.02265575095280833
-0.02894767342101188 -0.006385230961766585 0.0012649468811920703
-0.03776711361753988 0.025811409481167637 0.01659127587204557
-0.02533367010191304 -0.002736928236614953 -0.02617280035279338
0.0050620451213140485 0.0012914885394976591 -0.001676850733184322
0.018502743075818714 -0.010239291658472295 -0.04271130280903387
-0.037957574935365335 -0.026889757896055303 -0.007141849901461132
0.020600852450934144 0.009509970561603305 0.0023275176869245137
-0.05340893268381135 -0.04307238626054544 -0.04282433619665442
-0.04876366213639362 -0.03421634209015465 -0.025999339526987165
-0.054482320672674285 -0.03574833789902659 -0.0355384340002124
0.009653498436851036 0.007274331015310615 0.024121152174376218
-0.008195216147765826 0.024104299150178768 -0.02065096860537553
0.0007710008141544555 0.019172110192102517 -0.016592911191289427
-0.026997509965870248 -0.025282996888978844 0.037853566570799434
0.026393266975572243 0.023159707522767765 0.006812881971578318
0.01898583004358963 0.022876470141855936 0.007014147875582823
0.034582671921347244 -0.019677875537073446 -0.00300273699632287
0.007108350096718578 0.011881655972847351 0.0035837908358886945
0.0034346779672523808 -0.021570165319455336 0.010476058170191581
0.012843995548415501 -0.012784956490131788 0.00906716236671646
0.0034437471572965313 -0.0025067683197584944 -0.005396099908870784
0.0032448398526259566 -0.000346913000450904 0.03526202503726523
-0.010541896326627168 -0.012310077118446507 -0.00268087434585006
-0.009769968783834466 0.0016627492445964532 -0.031148747096065604
0.0562923062961888 -0.015291285115288737 -0.023267642555377475
0.05011700881466914 0.00011668285182328482 0.0013755076755503765
-0.0010086816532358601 0.004810553383147491 0.012553117300863292
-0.021325146246174757 -0.029843297300838803 -0.02713002678603153
-0.032787786449217225 0.016866215659165365 -0.012385226640813582
-0.04376459166639647 0.009700309092431204 -0.019513802793277465
-0.0004901182310316272 -0.017909885482933686 0.012463123259305228
-0.02747879774468776 -0.01973929000337883 0.0005562215773595265
-0.001427044156676919 -0.026767633157027224 0.036032276378757715
0.00437793553840437 0.023814717955270636 0.008335891662208902
-0.00032722975776641223 0.006986106863153813 -0.019977885031419864
0.03568361812320764 0.0029651125169006523 0.022051815498665566