# vtk DataFile Version 2.0
Really cool data
ASCII
DATASET UNSTRUCTURED_GRID
POINTS 584 double
-1.0 0.0 0.0
-0.9600374798207896 -0.027590413451835553 0.04
-0.9589620457797374 -0.028177574718636023 0.0
-0.9553815213922792 0.019675326217199102 0.04
0.6719637381218919 0.02110482676547816 0.0
0.6414775595248179 0.020020515529780993 0.04
0.6571281419012174 0.06 0.0
0.6240641012293764 0.022292119262118645 0.0
0.687851041884645 0.021313940245698455 0.04
0.7030120427199962 0.06 0.04
0.657128141901218 0.06 0.04
0.7030120427199952 0.06 0.0
0.6885310613992013 -0.0196061899732657 0.0
0.6720046167250797 -0.020579604775701428 0.04
0.6407079554435648 -0.019738458112036637 0.0
0.7171469290115033 0.021165332718839136 0.0
-0.7921016077200962 -0.06 0.04
-0.7604373514312079 -0.019298436119384588 0.0
-0.7479973317145423 -0.06 0.04
-0.7479973317145417 -0.06 0.0
0.7030120427199962 -0.06 0.0
0.7030120427199952 -0.06 0.04
0.6571281419012174 -0.06 0.04
0.7479973317145417 -0.06 0.04
0.7325903506195701 -0.020274227246539274 0.0
0.7176321617908783 -0.019839353713154383 0.04
0.7604373514312079 -0.019298436119384588 0.04
-0.8488906624897727 0.019856366527450334 0.04000000000000001
-0.8052789150181434 -0.019306901564895652 0.0
-0.805541091654972 0.020469431563422978 0.04000000000000001
-0.8203038938742353 -0.020636147377884773 0.04
0.897529295217204 0.022569895749215793 0.0
0.8488906624897727 0.019856366527450334 0.0
0.8569454102823642 0.029774901726562965 0.04
0.8777357995360431 0.06 0.0
0.9553815213922792 0.019675326217199102 0.0
0.95349853104827 0.02147987272312249 0.04
0.9103536180674616 -0.021283841161765512 0.0
-0.5450807564691462 -0.01715484187473429 0.04000000000000001
-0.5372746904547943 0.02439300391790418 0.04
-0.49049502097572617 0.000359712426279548 0.04000000000000001
-0.5409244119327052 -0.005150142234760652 0.0
-0.48901428549955095 -0.02776609156780287 0.019771763033692314
-0.4642419910175897 -0.06 0.04
-0.43891524330526177 8.673617379884035e-17 0.04000000000000001
0.7479973317145423 -0.06 0.0
0.9600486361512215 0.06 0.04
1.0 0.06 0.04
1.0 0.06 0.0
0.9192992165657531 0.06 0.0
0.7479973317145423 0.06 0.04
0.7309057796957548 0.02177174945441851 0.039999999999999994
0.7479973317145417 0.06 0.0
0.7613659684934695 0.020945326906433456 0.0
0.7736855084518748 0.020914979208800512 0.04
-0.8570647961856006 -0.015388027432140593 0.0
-0.8569454102823642 0.029774901726562965 0.0
-0.8649535140731797 -0.02016838668923704 0.039999999999999994
-0.1726925416005594 -1.214306433183765e-16 0.039999999999999994
-0.22806385632140147 1.0755285551056204e-16 0.039999999999999994
-0.2006519843784229 0.06 0.0
-0.22806385632140147 -1.1796119636642288e-16 0.0
0.438611990705585 -5.252150912499892e-05 0.04
0.41358849559293387 -0.06 0.04
0.4135884955929341 -0.06 0.0
0.4642419910175897 -0.06 0.0
0.4782715374234063 0.0302584611690398 0.019894876072988572
0.513903464641242 0.06 0.0
0.49049502097572617 0.000359712426279548 0.0
0.46424199101758934 0.06 0.0
0.46424199101758934 -0.06 0.04
-0.8164681441220105 0.022269284396602723 0.0
0.48912437490067595 -0.00041996788971368666 0.04
0.4642419910175897 0.06 0.04
-0.8353421249080566 0.06 0.04
0.8649535140731797 -0.02016838668923704 0.0
0.8973163514988121 0.02144006532192878 0.04
0.5625923446839085 0.06 0.04
0.6103276788742331 0.06 0.0
0.5943416245309461 0.018901239582525348 0.04
0.5790918012159274 0.021628695864523574 0.0
-0.593631917725493 -0.01946781888421301 0.04
-0.6103276788742336 -0.06 0.04
-0.6407079554435648 -0.019738458112036637 0.039999999999999994
-0.6264545933043166 -0.021459100211208025 0.0
-0.6103276788742331 -0.06 0.0
-0.6103276788742336 0.06 0.0
-0.6240641012293764 0.022292119262118645 0.04
-0.6414775595248179 0.020020515529780993 0.0
-0.5943416245309461 0.018901239582525348 0.0
-0.5790918012159274 0.021628695864523574 0.04000000000000001
-0.5625923446839077 0.06 0.04
-0.6103276788742331 0.06 0.04
-0.5625923446839085 0.06 0.0
-0.7325903506195701 -0.020274227246539274 0.039999999999999994
-0.7176321617908783 -0.019839353713154383 0.0
-0.7309057796957548 0.02177174945441851 0.0
-0.7736855084518748 0.020914979208800512 0.0
-0.7613659684934695 0.020945326906433456 0.04
-0.6571281419012174 0.06 0.04
-0.6719637381218919 0.02110482676547816 0.039999999999999994
-0.7030120427199952 0.06 0.04
-0.687851041884645 0.021313940245698455 0.0
-0.029521960903255984 -0.06 0.04
-0.05860957814939871 -6.938893903907228e-17 0.039999999999999994
-0.05860957814939863 5.898059818321144e-17 0.0
-0.08769719539554167 -0.06 0.0
-0.08769719539554144 -0.06 0.04
-0.2823507532564078 -5.204170427930421e-17 0.04
-0.25547572826437986 0.06 0.04
-0.25547572826438003 0.06 0.0
0.38751191920162714 6.938893903907228e-18 0.0
0.3352618020299945 -3.469446951953614e-18 0.0
0.36192316205531716 0.06 0.04
0.3619231620553172 0.06 0.0
-0.36192316205531716 0.06 0.0
-0.335244821032008 -1.1796296425746478e-06 0.0
-0.3352618020299945 -3.469446951953614e-18 0.039999999999999994
-0.38745316199969926 -7.894682722445895e-06 0.0
-0.3619231620553172 0.06 0.04
-0.3092257782484355 0.06 0.04
0.28235075325640757 5.551115123125783e-17 0.039999999999999994
0.30922577824843556 -0.06 0.0
0.335244821032008 -1.1796296425746478e-06 0.04
0.3092257782484355 -0.06 0.04
0.36192316205531716 -0.06 0.0
0.38745316199969926 -7.894682722445895e-06 0.04
0.3092257782484355 0.06 0.0
-0.38751191920162714 6.938893903907228e-18 0.04
-0.28235075325640757 5.551115123125783e-17 0.0
-0.30922577824843556 0.06 0.0
0.6103276788742336 -0.06 0.0
0.593631917725493 -0.01946781888421301 0.0
0.6264545933043166 -0.021459100211208025 0.04
0.4889627886584896 -0.027603176797077415 0.020155725176282127
0.583287522480325 -0.023728770665855194 0.039999999999999994
0.5450807564691462 -0.01715484187473429 0.0
0.5409244119327052 -0.005150142234760652 0.04
-0.48912437490067595 -0.00041996788971368666 0.0
0.3619231620553172 -0.06 0.04
-0.657128141901218 0.06 0.0
0.9600374798207896 -0.027590413451835553 0.0
1.0 0.0 0.04
0.9589620457797374 -0.028177574718636023 0.04
0.5625923446839077 -0.06 0.04
0.5625923446839085 -0.06 0.0
0.7766984080639845 -0.02052537972713625 0.0
-0.438611990705585 -5.252150912499892e-05 0.0
-0.583287522480325 -0.023728770665855194 0.0
-0.9600486361512215 0.06 0.0
-0.95349853104827 0.02147987272312249 0.0
-0.9192992165657539 0.06 0.0
-0.9192992165657531 0.06 0.04
-1.0 0.06 0.0
-0.14473309882269625 -0.06 0.04
-0.14473309882269605 -0.06 0.0
-0.11621514710911887 -1.214306433183765e-16 0.0
-0.17269254160055947 1.1796119636642288e-16 0.0
-0.14473309882269625 0.06 0.0
-0.11621514710911884 1.214306433183765e-16 0.039999999999999994
-0.8353421249080566 -0.06 0.0
-0.8353421249080575 -0.06 0.04
-0.8973163514988121 0.02144006532192878 0.0
-0.897529295217204 0.022569895749215793 0.04
0.11621514710911887 -1.214306433183765e-16 0.039999999999999994
0.05860957814939871 -6.938893903907228e-17 0.0
0.05860957814939863 5.898059818321144e-17 0.039999999999999994
0.08769719539554144 0.06 0.04
0.6103276788742336 0.06 0.04
0.5139034646412424 -0.06 0.0
0.9096368506350345 -0.020963842829632554 0.04
0.805541091654972 0.020469431563422978 0.0
0.8052789150181434 -0.019306901564895652 0.04
0.8203038938742353 -0.020636147377884773 0.0
0.08769719539554144 -0.06 0.0
0.08769719539554167 -0.06 0.04
0.9192992165657531 -0.06 0.04
0.8164681441220105 0.022269284396602723 0.039999999999999994
-0.9103536180674616 -0.021283841161765512 0.04000000000000001
-0.8777357995360431 -0.06 0.0
-0.9096368506350345 -0.020963842829632554 0.0
0.8570647961856006 -0.015388027432140593 0.04
0.7921016077200956 -0.06 0.04
0.8353421249080566 -0.06 0.04
0.7921016077200962 -0.06 0.0
0.4135884955929341 0.06 0.04
0.43891524330526177 8.673617379884035e-17 0.0
-0.7921016077200956 -0.06 0.0
-0.08769719539554144 0.06 0.0
0.14473309882269605 0.06 0.0
0.1726925416005594 -1.214306433183765e-16 0.0
0.11621514710911884 1.214306433183765e-16 0.0
-0.029521960903255984 0.06 0.0
0.0 0.0 0.0
0.17269254160055947 1.1796119636642288e-16 0.04
0.14473309882269625 0.06 0.04
0.0 0.0 0.04
0.2006519843784229 0.06 0.04
0.22806385632140147 -1.1796119636642288e-16 0.04
0.22806385632140147 1.0755285551056204e-16 0.0
-0.6720046167250797 -0.020579604775701428 0.0
-0.7030120427199962 -0.06 0.04
-0.7030120427199952 -0.06 0.0
0.25547572826438003 0.06 0.04
0.30922577824843556 0.06 0.04
0.25547572826437986 0.06 0.0
-0.02952196090325599 0.06 0.04
0.2006519843784232 -0.06 0.04
0.14473309882269605 -0.06 0.04
0.2006519843784229 -0.06 0.0
0.14473309882269625 -0.06 0.0
0.2823507532564078 -5.204170427930421e-17 0.0
-0.36192316205531716 -0.06 0.04
-0.41358849559293387 -0.06 0.0
0.5372746904547943 0.02439300391790418 0.0
0.5139034646412424 0.06 0.04
-0.5139034646412424 -0.06 0.04
0.41358849559293387 0.06 0.0
-0.7171469290115033 0.021165332718839136 0.04
-0.7479973317145417 0.06 0.04
-0.7030120427199962 0.06 0.0
0.08769719539554167 0.06 0.0
0.029521960903255984 -0.06 0.0
-0.02952196090325599 -0.06 0.0
0.02952196090325599 -0.06 0.04
0.02952196090325599 0.06 0.0
0.029521960903255984 0.06 0.04
-0.47805793986482265 0.03008719549728311 0.01940109733029794
-0.4642419910175897 0.06 0.0
0.6103276788742331 -0.06 0.04
1.0 -0.06 0.04
0.9600486361512205 -0.06 0.04
0.9600486361512215 -0.06 0.0
-0.3092257782484355 -0.06 0.0
0.877735799536044 -0.06 0.0
0.8777357995360431 -0.06 0.04
-0.41358849559293387 0.06 0.04
-0.4135884955929341 0.06 0.0
1.0 -0.06 0.0
1.0 0.0 0.0
-0.14473309882269605 0.06 0.04
-1.0 -0.06 0.0
-0.9600486361512215 -0.06 0.04
-1.0 -0.06 0.04
-0.7921016077200962 0.06 0.0
-0.9192992165657531 -0.06 0.0
-0.9600486361512205 -0.06 0.0
-0.7921016077200956 0.06 0.04
-0.7766984080639845 -0.02052537972713625 0.04
-0.5625923446839085 -0.06 0.04
-0.5625923446839077 -0.06 0.0
-0.877735799536044 -0.06 0.04
0.7921016077200962 0.06 0.04
-0.3619231620553172 -0.06 0.0
-0.7479973317145423 0.06 0.0
-0.8777357995360431 0.06 0.04
-0.4135884955929341 -0.06 0.04
-0.46424199101758934 -0.06 0.0
0.513903464641242 -0.06 0.04
-1.0 0.0 0.04
-0.877735799536044 0.06 0.0
-0.30922577824843556 -0.06 0.04
[...]
POINT_DATA 584
VECTORS displacement double
0.009573066801071938 -0.012046382477345258 -0.001912313001567974
0.01186180531151132 -0.007987223657139832 -0.0008856892090170405
0.01124310285799724 -0.0016347333409280442 0.0023255638396688285
-0.006917716900839207 0.018677321239706828 0.002999338828477915
-0.010771938961458777 -0.014822826953341865 0.0002220828326629608
-0.013583776926521676 -0.008384865634949423 -0.0012544125583477906
-0.0015647562098617426 -0.024027890855552896 -0.004192263186264907
-0.006917312225388738 -9.671978331246996e-06 0.003958540919503469
-0.003949853259253687 0.002474371915340717 0.0005526916674441906
-0.001328062459871111 0.010077943636623813 -0.0006210200174915157
-0.0021286948131884285 -0.04126916923537689 0.004798108370413518
-0.002908222761730948 0.004832470628084209 -0.004252003774312243
0.012115287860462563 -0.005023081022303424 0.0037986079907429554
0.01752210396652062 0.00391370586357928 0.009495175389215803
-0.005413674762915597 -0.01886764460589936 0.00041289994078575425
-0.009783524733653818 0.009863050215767371 -0.00014762880389312938
-0.010462551247075957 0.035301031620526516 0.0019755964176719175
0.002167322921276776 0.013201340199420722 -0.0020920869741282056
-0.009274844828767361 0.019131278510173655 -0.0005545090807454156
-0.008731568315101973 0.011153585746722029 0.0036359521926738044
0.011892611130828389 -0.02206343062356097 0.004026763956064774
0.024631662725981666 -0.030214446703310485 0.004905836637638708
0.0019904046010953713 0.07409939105581494 0.02835735835356279
0.0034977056823400072 -0.012404376018908977 -0.004680585580149155
0.0038409722401003235 -0.002946773464197234 0.002070205036544954
0.008100944223943779 -0.0009724215726113702 -0.0026750174659979234
0.003126258539068217 -0.008247757129654037 -0.001964930543414944
0.0033180129838594427 0.012599032433274962 -0.0026420106046712655
-0.010157551401801784 -0.0014543253588201466 0.0007606318989250695
-0.004909878881614834 -0.003149547773845214 0.0009799630161134185
-0.010680622431411314 -0.009723096140902122 -0.0023533902101618323
-0.0005018768983011453 -0.001712554592710495 -0.00014543854592918214
-0.008611924306760076 0.0015871813075891072 -0.0023589821950423893
-0.010745879146539856 -0.015192037361357786 -0.0017910691093461662
-0.015738697704539825 -0.014893264143249148 0.0039041874044085352
-0.0017988048039559613 -0.0003336199785674415 0.00012678071781972784
-0.0030052760430858763 -0.00018501914077033167 -0.00020076560916795975
0.004700881875862644 -0.001471036520232567 0.00011032677361264199
0.008905839731660228 -0.00041697080016032424 -0.007723678741330242
0.005346749194274881 0.013987748343343695 -0.006640360052183484
-0.003992829262360111 -0.012861676295773545 0.004336171493640014
0.007721150865047982 0.004976807424305655 -0.005907206303438599
-0.029198286506849677 0.0028125502084621534 0.00033703986717433356
0.007306950244926085 0.0929279694394574 0.015778274781030718
0.012069095820041823 -0.018746465591132515 0.01027379571035537
0.004252515202899202 -0.008102564119862722 -0.001877883895933762
-0.009513978961513011 0.0003508469448149378 -0.0003505953808585315
-0.008914996248576137 0.0010219063014467946 6.526902190168769e-05
-0.00826839926704721 0.0007678140774017159 0.00032734433946845744
-0.00896859650960528 0.0018148695887727187 -1.2217188502278694e-05
-0.002257438295603611 0.02541312080225076 -0.006017907147255819
-0.008241576384869158 0.01636317093624106 -0.004466519694864193
-0.0042362372842711885 0.02193116369314738 -0.00295421009445706
-0.021031614973807875 0.006423909848607156 -0.003692261972646147
-0.018881464921865702 0.0030953581950711037 0.0016493356972425107
0.0036792646029878404 -0.0022556411854951614 0.0019960069825373664
0.0055830572505168536 0.006588873333674526 -0.0013462500820347538
0.0028997178565369586 -0.001476992212244914 -0.0018469789674098673
-0.01268875130724775 0.021209330869936732 0.005514676250220308
0.01546093256657694 -0.023984439114287243 -0.009612194656059045
-0.01605403835220191 0.06231270267931825 0.0034389103482596792
0.004775720923030588 -0.019932839508976313 0.004055988337279478
-0.0067053174042811265 0.03439187395169755 -0.008739296240859293
0.009415878362328297 -0.026784147487178788 -0.007913045436336476
0.018208094215105778 -0.028782496189661527 0.004035554750614829
-0.015589498251345014 -0.031234574292835455 0.01140051941152161
-0.0028644673165477497 -0.00661769870678603 0.0027072717842490076
-0.00045758608511992213 -0.03063164893189297 0.0038324542792156097
-0.004280011467461323 -0.0034834396566401997 -0.0007339189891102477
-0.0006682956970925738 0.002316892408807667 -0.004138510829312514
-0.010600074410023216 -0.06783755150125532 -0.017079635646455933
0.00030474165185181783 0.0056940906714002815 0.00011960354924060925
-0.008866922518927336 0.0012918534456976794 0.006092291394632131
0.004851858353985265 -0.007299562461214141 0.009035214546145427
0.006527553714332156 0.02201657693008364 -0.0034642541835030057
0.005841964321675824 0.003517172596945229 -0.001625585430346586
-0.0005850839988456368 -0.0009567257745979639 0.0005565230272417365
-0.01289519606987518 0.02598345157462058 -0.008156760527637653
0.0026615175612529334 0.016321253004064416 -0.007359060118042249
-0.0037312763550278964 0.048498351467168244 -0.005576250605407804
-0.004449083283639533 0.02537396019225047 0.0016046260728476223
0.011670959580519781 0.018293606084806426 0.003889591645472643
-0.003875872653625583 0.024093667854072024 0.009036261308662776
-0.0028537858964709016 0.007150665994127608 0.0042340894482743975
0.0020441320050394248 0.0032600538032407592 -0.0034781466714716557
-0.007111068681815162 0.016047244708100882 0.002443128474795814
-0.013231326218348629 -0.01401280256306735 0.009970360899044765
0.00039672882756683765 -0.03697199141414314 0.003172789346468228
-0.0028454350370192474 -0.009133784320089025 0.0026810351638581007
0.004542108011456606 -0.0013041294478286138 -0.003249813111028969
0.008338174292962068 -0.0021105917601486855 0.00020790770756478905
-0.010925019010181922 0.0079164585658351 -0.0025611969942772473
-0.015236036693192977 -0.007821980731916905 0.0009452043303542527
-0.010140136837059251 0.0062139977117806845 0.0004971227617228213
0.012597185834279403 -0.005595157659468574 0.003592712096574221
0.0065270873090044045 -0.008467777483999487 -0.0010651301177153248
0.010119692942994751 -0.0066275825320451206 -0.001221717038276337
-0.0016064419360503018 -0.012011955278905018 -0.0010767544019379307
0.0068628089736900814 -0.026410537779109854 0.006351941115622945
0.005500095495396984 0.016677646202201822 0.0025459597109345564
-0.004240000342219366 0.004700029074311188 -0.002105826874001486
0.006154129483318043 0.04263371412000941 -0.0036231016553791603
0.002541908035792953 0.009247200841335072 0.004926754629094052
-0.03359936567160775 -0.08279198421890618 -0.008686723044911662
-0.007948266274085597 0.0903496728767558 -0.017073750652445253
0.0017448582450665302 0.06634701745146733 0.0030160602409253297
0.05426952505367833 -0.05286173054627276 0.006588659464623192
0.05530709515311275 -0.0671820131362484 -0.008575114443112458
0.018924414395713754 0.03279924556450424 0.010273854925935659
0.01725050604242281 -0.01150416699236868 0.0017190661631811734
0.00863604828366662 0.002938458029366012 0.001985278278708098
0.022270343619346645 -0.03098448664263616 0.0013206376199962218
-0.009154817220757906 0.05124913222519509 -0.0051528730262747685
0.030434198374769628 -0.06763989812270083 0.00980663106485567
0.021376653685376213 -0.05457816687292181 0.002182581414619857
0.01266126241787329 0.07346129790503941 0.00880431876927763
-0.026701959044788795 -0.03451780410341162 -0.006124914131002362
-0.03296657879527433 -0.05918176070543311 0.0058539169341495076
0.019522291769811486 0.03171220876848899 0.0011427464535711668
0.0020412631632804176 0.11255433456417935 -0.021644406024362645
-0.02425143320597165 -0.08274330791835122 0.019427918830987406
-0.009917061097850548 -0.059493668140101326 -0.007124729885231504
0.02645048530999284 -0.009637350561827952 0.007606482108937301
-0.001432824195876797 0.07062479362509663 0.008973317348301865
0.010087097788140419 -0.022954581710603966 -0.0051669237616712976
-0.012869198458130653 0.03552999056436707 0.0034225863490208114
0.021410639564856355 -0.04665527617388506 -0.00031071385077789405
-0.0364589423227286 -0.025170589193450915 -0.008216349641418756
0.013105171921531211 0.03346590527968838 -0.006578067343946954
0.0219140126217946 0.028285585120738872 0.001631571534908406
-0.028337448029324093 -0.06650626702687082 0.003108777430932406
-0.02870293602501165 -0.025818909463969475 0.0014112234391398342
0.008792688440210516 0.012865845653493017 0.006727774484047647
-0.008744728797272226 -0.04620081765100291 0.0035648112894731986
-0.0404060042760258 0.008641552966652427 0.0033693628899795908
0.006144629176278288 0.020530471849535843 -0.005434793994022513
0.02405236232578707 -0.020840507852231845 -0.004254249425092599
0.012317069477326874 -0.03752915927070653 0.005837299152933947
-0.0010911679510747525 -0.006008390646769778 -0.004433746972425622
-0.024734267587802793 0.04508589019785005 0.007987353664021996
-0.0019634272713735536 0.00906327677575091 0.0022534257473682106
0.004158368441418848 -0.0011751125286925351 0.000315302819897242
-0.0006960458811642971 0.002696815843685959 0.00023705058743560812
0.003082799159531632 -0.0017679462047281394 0.0006285299639874397
0.010470150967113954 -0.032200527691916656 -0.002410725558258114
0.006706739055041251 -0.0340421740455451 0.005574713256937406
0.0020836526632553257 0.003577818003675574 -0.003334366737515982
0.009540122284831592 -0.016621044370298942 -0.005733074472905386
0.007405492203417803 0.009401036729536297 -0.0011585443952186864
-0.005528826116494168 0.006335783202276903 -0.0021131832945505123
-0.005977959110198278 0.01118391971636826 -0.0017050872879588177
0.003889461311029871 -0.019996102098754215 0.0024057150958943065
0.0004015867356681238 -0.03459215917163158 0.005228542092009708
-0.009801013655715708 -0.011578414526590142 -0.004367148222462667
0.026094362935276935 0.09901974628707498 0.016718370555286303
0.01111183504359383 0.07057596445554037 0.0045542204326430415
0.02743780055331744 -0.045226819814834625 -0.007211228208948529
-0.024031027465299563 0.019372402601699857 0.001800687378585031
0.003775346521120943 -0.08292834087201904 0.0013206293794881876
0.038257368940177255 -0.05626545648475041 0.00596852596958917
-0.014984396383707972 -0.020118443992344453 0.00045012084830960874
-0.017463083440850798 -0.029345985629013208 -0.0049760421156201115
0.006941106687836699 -0.0050767541493028 -0.002808970445816907
0.011577501783343519 -0.009795001309027603 0.0024591451033119127
0.00020862484154760122 0.001428487160113533 -0.005621944648422897
0.0073406951970160245 0.03530566004205489 -0.0009828767541510902
0.010273212992783432 0.04487287410293324 0.005086990202980738
-0.010787377654983596 -0.0837731662463775 0.0073956733996942475
0.0013895641706044913 0.02357025371232711 -0.0014731209021935357
-0.013483598932925656 0.052032008927674823 0.021129735257596774
0.0015745695971115898 -0.0017559415131747217 -0.00018987082227526212
0.002835995766570831 -0.007732730109513974 -0.0028494444189816046
0.000645341667823156 0.000389099140008812 0.002077977118363023
0.005467610380518708 0.0008674048159578898 -0.0021861427060986126
-0.01820358866820735 -0.07432205569233158 -0.0036748100275874047
0.01109262497352213 -0.10302115260005187 -0.01560301537623027
0.0014947378284373223 -0.0016756046010552002 0.0004501876988786636
0.006492159072348802 0.005023554907649862 -0.0016442893110105914
0.0016806100181767287 0.01040985296065138 0.0018512366479959848
-0.010773647948815643 -0.00768113113506742 0.003983934372952534
0.0026017044472679053 0.0045242639663673565 0.001037860613080991
0.0017489075819792938 0.004258760851782835 0.0005066061160342905
0.0008820041483543427 0.010567469370119034 -0.0003080002364945418
0.003650272415956412 0.0060648464800098015 -0.0007447953661872443
0.0037910925666303085 0.007222150579046062 -0.0006570208860780924
0.008490982825746235 0.07834647520084378 -0.010532152052600507
-0.004908839018400289 0.02273775913193518 -0.004534312922015014
-0.01115133555284933 0.021861653204092397 0.004712537490186151
-0.03302218455042626 0.0637717972169597 -0.011824536952448726
0.02412622135130527 0.056881154195469526 0.010989866510587965
-0.007087703036150061 -0.0028311772850365276 -0.0006246222639752477
0.0013183247901291423 0.0017977090716562772 -0.0013138927402568529
0.0076921799327387365 -0.005705719561665028 -0.00840943854786555
-0.023629353932305548 -0.05457989807504647 0.0009164638167563395
-0.014554650557147887 -0.01816406149155804 0.004778156484183725
0.02199707609322019 0.08861277764866331 -0.019309179798298593
-0.020983070102208096 -0.05257857555798236 0.0016545056859219058
0.017993433253137698 -0.10256050022562596 0.01898042030484862
0.025163570753294506 0.0117393968427969 -0.0010667998797131485
0.020693095642025264 0.009792952735568882 -0.0005569195086524326
0.0005993272924305658 -0.003887963520456334 0.00077187414873322
-0.006633086160052793 -0.01870714320846556 -0.004889709913908618
-0.005500129656689355 -0.01534079425214923 -0.0023696155883459968
0.034596433736824445 0.11880361113997441 -0.022250575465373547
-0.029332267094254426 -0.0495526776733708 0.00266377067058146
0.008500645697847063 0.08510675335453631 -0.011680960193161997
0.016050379304563347 -0.027453205838922058 0.014906850892998862
-0.024301430081885574 0.020304899942617218 -0.0016989609963384772
-0.037635042707148604 0.03749031803326844 0.01110004570485147
-0.008811460138598725 0.02149036527035781 -0.011479121827788232
-0.031140912453156182 0.02449616943785756 -0.013408394990008432
-0.0039104277280856085 -0.05433034430482734 -0.00040893396078503296
-0.03445328288174377 -0.08023534567278826 -0.012261766804132124
0.010021282091287706 -0.006606119766640417 -0.0035452728288544364
0.0012976645678666715 -0.02707231900623423 0.005228413899455312
0.008629669266898695 -0.031555040527880364 0.006483370497221619
-0.02227279898873983 -0.06550940828887307 -0.019038996666648454
-0.0015100005362417796 0.06160210292537314 -0.007081668484184823
0.012789301710973002 0.002882379241415067 -0.0023286938187329713
0.007097520332586848 -0.0358559243490619 0.0021053166404927885
0.008006326631899511 0.024429554578299185 0.0008480475254644822
0.02311477661070404 -0.04996095027762342 0.003241956741237037
0.013443298369397139 0.09098648084189032 0.011792160844660882
-0.03407725007202563 -0.06704991585837335 -0.0007488324726938367
0.011548813221670966 0.11987756049488248 0.018027864009640626
-0.02521890201555021 0.01059837851055098 -0.00043550112214862474
-0.03857738882831116 0.019089286614892523 -0.006825684285168373
-0.006896621165612256 -0.011962740978541978 0.001068032727696056
-0.005678775374000797 -0.016014915753269413 0.004130446566935506
-0.03712578495574721 -0.03245382970447141 -0.0019642981838512365
0.0044510502113159645 0.000306023517857104 0.0005531201174792494
0.0029059002349044825 0.001402727930509582 0.0007787507091649863
0.004708357000790127 -0.0004631803560432349 0.00111925857938308
0.007678085207967028 0.1008975680694142 0.0005915353989943114
0.003746284034216241 -0.000604067472994763 -0.0009957010721226155
0.001751783351016045 -0.0013964279150134478 -0.0018935645397908565
-0.017415718854334992 -0.04616707348174195 0.006439061700324321
-0.0009073011006043515 -0.027527736375937827 0.004340030695577453
0.006466428250022231 7.915810072181109e-05 0.0020950884101300707
0.0018714358916159146 0.0021309042809103257 0.0015010046371385878
0.015909560277024445 -0.11027791345633133 0.02281475396222602
-0.014606352741475512 0.020782024918322723 0.001131192552294915
-0.0114903311520589 -0.007550435812651235 -0.003339949063914725
-0.017392791977101963 0.036741818497307926 0.000726659993089919
0.006821672674220191 -0.0032092243458725954 0.0022431193348302885
-0.005757778005077942 0.005364344284842823 0.002029279811797749
-0.010360547026464386 -0.0012860794964893818 -0.000531862587786854
0.004304292498083389 -0.004466435899755101 0.002981613567924066
-0.0019932839189458046 0.02724347993154642 0.006342975045713679
-0.012305654688396268 -0.006100447672890775 -0.007360604439362089
-0.010452662037746193 -0.0043679425686396385 -0.0010163079626720071
-0.010039139907448008 -0.013630323180537312 0.0008786852588353574
0.0148508931050306 -0.07414331298172402 -0.0019594510455688543
-0.02971207511521324 -0.06591010285052203 -0.008798198920121002
0.007634190373495377 -0.024069806926956358 0.004206789482681148
0.00583783667544851 0.0037400916778239225 -0.0047271182188143536
0.021358189103629792 -0.012383328450300242 0.0016594551524590972
-0.007028273143606411 0.05013503689310009 0.010511860094138811
-0.006708659684641222 0.10145577238224933 0.0190499888895164
0.006169789112980399 -0.01942333482545413 0.0016607501217656467
0.003427569696694043 -0.0006253178653889284 -0.00238459802395944
-0.008498350593442791 0.13253653264543414 0.011566067513137513
0.0016819451717788997 -0.049741262590207266 -0.008410289538749196
-0.03048635138480539 0.07914219108766234 -0.017513724725065214
-0.003387302782086697 -0.007686553612744668 0.002649077784868759
0.010328543129958808 -0.03436395712416568 -0.0010912818448902781
-0.008366419087720902 0.007216544451835788 0.0013751660429135117
-0.00689628194211008 0.007518742977556479 0.002089405204275809
-0.005629588799343234 0.012138660379875847 -0.002941309480309218
0.0018972124596134505 -0.012475345251272417 -0.003858038686742728
-0.008713786945258283 -0.00011183987548000762 -2.785138996221828e-05
-0.013345756714993658 -0.008629816630102148 -0.004824560962701719
-0.010718687654921441 0.026674395372354706 -0.009652410013911664
-0.015520192378719683 -0.019119442927738105 0.00033606241252536563
-0.0040231938010916925 0.0007894437626973783 0.0013644976062585341
-0.016191616194601563 -0.01362964825647021 -0.00010239423523564986
-0.01068451936664345 0.00224639014358532 -0.0011201652602292709
-0.03010556821892633 0.004344294287234409 0.001239176312862734
0.0062523478391361175 0.0032891697737707105 -0.0005113469359342248
-0.02143334003406173 -0.03553774354619987 0.000709633235122688
-0.015862213734351076 0.08974403306863676 -0.015166919499981547
0.005519114740953273 0.014555207760147612 -0.003146286463289834
0.013009470779804085 0.040307543438394905 0.012203714586256855
0.019877181063633936 0.07077079449109762 -0.008314366819411903
0.010338743779792986 -0.05088381343496402 0.0018615059361437104
0.004249937367001789 -0.0015202295688184963 1.6835122094145535e-05
-0.012657042997047483 0.013599872849871967 -0.005564520529804936
-0.0064221023511033485 -0.00037575626696527333 0.00038669656129488206
-0.0020600507392279387 0.03519255327306564 0.011438777211047114
0.0037712899531762915 -0.028541120606531092 -0.0065690056030885775
0.00991579121576249 -0.025284456473511463 0.005381184281875859
0.014130151457057595 -0.07474273906408474 0.01359509399445959
-0.018850289708189714 0.008437592416929042 7.508440565293064e-06
0.0029297574503043744 0.0009833696805496 0.0004576939580693724
-0.0031726904777145833 -0.026244397233000066 -0.00383116201249925
-0.0025678565208763302 -0.017125229706039632 0.002011420194954866
0.0004994553082278407 0.015723489618599505 0.00577619654504136
-0.013856794386638826 -0.0014571052976401063 -0.0018796274862136091
-0.004129973428153305 0.018389796901782142 0.004007987465987262
-0.0015881021837489734 -0.04267536110262237 0.006889783173958058
0.0072128883043099815 -0.028067420130219827 0.0038959115275360033
-0.0007680965912828515 -0.033745723375589204 0.010670981231771072
0.006621150728028142 0.009541292642013716 0.00128150504248433
0.017470328936424688 -0.012616449114837128 -0.001194412058941943
0.006870660441689326 -0.0033746673809615184 -0.0024389869258068047
0.0044502284482505665 -0.01091216445675426 -0.0012184977130082486
-0.014225329193284784 0.011069642769778024 -0.001562688120324324
-0.0002750525889261973 -0.014638589929245237 0.0004782551446815021