# vtk DataFile Version 2.0
Really cool data
ASCII
DATASET UNSTRUCTURED_GRID
POINTS 584 double
-1.0 0.0 0.0
-0.9600374798207896 -0.027590413451835553 0.04
-0.9589620457797374 -0.028177574718636023 0.0
-0.9553815213922792 0.019675326217199102 0.04
0.6719637381218919 0.02110482676547816 0.0
0.6414775595248179 0.020020515529780993 0.04
0.6571281419012174 0.06 0.0
0.6240641012293764 0.022292119262118645 0.0
0.687851041884645 0.021313940245698455 0.04
0.7030120427199962 0.06 0.04
0.657128141901218 0.06 0.04
0.7030120427199952 0.06 0.0
0.6885310613992013 -0.0196061899732657 0.0
0.6720046167250797 -0.020579604775701428 0.04
0.6407079554435648 -0.019738458112036637 0.0
0.7171469290115033 0.021165332718839136 0.0
-0.7921016077200962 -0.06 0.04
-0.7604373514312079 -0.019298436119384588 0.0
-0.7479973317145423 -0.06 0.04
-0.7479973317145417 -0.06 0.0
0.7030120427199962 -0.06 0.0
0.7030120427199952 -0.06 0.04
0.6571281419012174 -0.06 0.04
0.7479973317145417 -0.06 0.04
0.7325903506195701 -0.020274227246539274 0.0
0.7176321617908783 -0.019839353713154383 0.04
0.7604373514312079 -0.019298436119384588 0.04
-0.8488906624897727 0.019856366527450334 0.04000000000000001
-0.8052789150181434 -0.019306901564895652 0.0
-0.805541091654972 0.020469431563422978 0.04000000000000001
-0.8203038938742353 -0.020636147377884773 0.04
0.897529295217204 0.022569895749215793 0.0
0.8488906624897727 0.019856366527450334 0.0
0.8569454102823642 0.029774901726562965 0.04
0.8777357995360431 0.06 0.0
0.9553815213922792 0.019675326217199102 0.0
0.95349853104827 0.02147987272312249 0.04
0.9103536180674616 -0.021283841161765512 0.0
-0.5450807564691462 -0.01715484187473429 0.04000000000000001
-0.5372746904547943 0.02439300391790418 0.04
-0.49049502097572617 0.000359712426279548 0.04000000000000001
-0.5409244119327052 -0.005150142234760652 0.0
-0.48901428549955095 -0.02776609156780287 0.019771763033692314
-0.4642419910175897 -0.06 0.04
-0.43891524330526177 8.673617379884035e-17 0.04000000000000001
0.7479973317145423 -0.06 0.0
0.9600486361512215 0.06 0.04
1.0 0.06 0.04
1.0 0.06 0.0
0.9192992165657531 0.06 0.0
0.7479973317145423 0.06 0.04
0.7309057796957548 0.02177174945441851 0.039999999999999994
0.7479973317145417 0.06 0.0
0.7613659684934695 0.020945326906433456 0.0
0.7736855084518748 0.020914979208800512 0.04
-0.8570647961856006 -0.015388027432140593 0.0
-0.8569454102823642 0.029774901726562965 0.0
-0.8649535140731797 -0.02016838668923704 0.039999999999999994
-0.1726925416005594 -1.214306433183765e-16 0.039999999999999994
-0.22806385632140147 1.0755285551056204e-16 0.039999999999999994
-0.2006519843784229 0.06 0.0
-0.22806385632140147 -1.1796119636642288e-16 0.0
0.438611990705585 -5.252150912499892e-05 0.04
0.41358849559293387 -0.06 0.04
0.4135884955929341 -0.06 0.0
0.4642419910175897 -0.06 0.0
0.4782715374234063 0.0302584611690398 0.019894876072988572
0.513903464641242 0.06 0.0
0.49049502097572617 0.000359712426279548 0.0
0.46424199101758934 0.06 0.0
0.46424199101758934 -0.06 0.04
-0.8164681441220105 0.022269284396602723 0.0
0.48912437490067595 -0.00041996788971368666 0.04
0.4642419910175897 0.06 0.04
-0.8353421249080566 0.06 0.04
0.8649535140731797 -0.02016838668923704 0.0
0.8973163514988121 0.02144006532192878 0.04
0.5625923446839085 0.06 0.04
0.6103276788742331 0.06 0.0
0.5943416245309461 0.018901239582525348 0.04
0.5790918012159274 0.021628695864523574 0.0
-0.593631917725493 -0.01946781888421301 0.04
-0.6103276788742336 -0.06 0.04
-0.6407079554435648 -0.019738458112036637 0.039999999999999994
-0.6264545933043166 -0.021459100211208025 0.0
-0.6103276788742331 -0.06 0.0
-0.6103276788742336 0.06 0.0
-0.6240641012293764 0.022292119262118645 0.04
-0.6414775595248179 0.020020515529780993 0.0
-0.5943416245309461 0.018901239582525348 0.0
-0.5790918012159274 0.021628695864523574 0.04000000000000001
-0.5625923446839077 0.06 0.04
-0.6103276788742331 0.06 0.04
-0.5625923446839085 0.06 0.0
-0.7325903506195701 -0.020274227246539274 0.039999999999999994
-0.7176321617908783 -0.019839353713154383 0.0
-0.7309057796957548 0.02177174945441851 0.0
-0.7736855084518748 0.020914979208800512 0.0
-0.7613659684934695 0.020945326906433456 0.04
-0.6571281419012174 0.06 0.04
-0.6719637381218919 0.02110482676547816 0.039999999999999994
-0.7030120427199952 0.06 0.04
-0.687851041884645 0.021313940245698455 0.0
-0.029521960903255984 -0.06 0.04
-0.05860957814939871 -6.938893903907228e-17 0.039999999999999994
-0.05860957814939863 5.898059818321144e-17 0.0
-0.08769719539554167 -0.06 0.0
-0.08769719539554144 -0.06 0.04
-0.2823507532564078 -5.204170427930421e-17 0.04
-0.25547572826437986 0.06 0.04
-0.25547572826438003 0.06 0.0
0.38751191920162714 6.938893903907228e-18 0.0
0.3352618020299945 -3.469446951953614e-18 0.0
0.36192316205531716 0.06 0.04
0.3619231620553172 0.06 0.0
-0.36192316205531716 0.06 0.0
-0.335244821032008 -1.1796296425746478e-06 0.0
-0.3352618020299945 -3.469446951953614e-18 0.039999999999999994
-0.38745316199969926 -7.894682722445895e-06 0.0
-0.3619231620553172 0.06 0.04
-0.3092257782484355 0.06 0.04
0.28235075325640757 5.551115123125783e-17 0.039999999999999994
0.30922577824843556 -0.06 0.0
0.335244821032008 -1.1796296425746478e-06 0.04
0.3092257782484355 -0.06 0.04
0.36192316205531716 -0.06 0.0
0.38745316199969926 -7.894682722445895e-06 0.04
0.3092257782484355 0.06 0.0
-0.38751191920162714 6.938893903907228e-18 0.04
-0.28235075325640757 5.551115123125783e-17 0.0
-0.30922577824843556 0.06 0.0
0.6103276788742336 -0.06 0.0
0.593631917725493 -0.01946781888421301 0.0
0.6264545933043166 -0.021459100211208025 0.04
0.4889627886584896 -0.027603176797077415 0.020155725176282127
0.583287522480325 -0.023728770665855194 0.039999999999999994
0.5450807564691462 -0.01715484187473429 0.0
0.5409244119327052 -0.005150142234760652 0.04
-0.48912437490067595 -0.00041996788971368666 0.0
0.3619231620553172 -0.06 0.04
-0.657128141901218 0.06 0.0
0.9600374798207896 -0.027590413451835553 0.0
1.0 0.0 0.04
0.9589620457797374 -0.028177574718636023 0.04
0.5625923446839077 -0.06 0.04
0.5625923446839085 -0.06 0.0
0.7766984080639845 -0.02052537972713625 0.0
-0.438611990705585 -5.252150912499892e-05 0.0
-0.583287522480325 -0.023728770665855194 0.0
-0.9600486361512215 0.06 0.0
-0.95349853104827 0.02147987272312249 0.0
-0.9192992165657539 0.06 0.0
-0.9192992165657531 0.06 0.04
-1.0 0.06 0.0
-0.14473309882269625 -0.06 0.04
-0.14473309882269605 -0.06 0.0
-0.11621514710911887 -1.214306433183765e-16 0.0
-0.17269254160055947 1.1796119636642288e-16 0.0
-0.14473309882269625 0.06 0.0
-0.11621514710911884 1.214306433183765e-16 0.039999999999999994
-0.8353421249080566 -0.06 0.0
-0.8353421249080575 -0.06 0.04
-0.8973163514988121 0.02144006532192878 0.0
-0.897529295217204 0.022569895749215793 0.04
0.11621514710911887 -1.214306433183765e-16 0.039999999999999994
0.05860957814939871 -6.938893903907228e-17 0.0
0.05860957814939863 5.898059818321144e-17 0.039999999999999994
0.08769719539554144 0.06 0.04
0.6103276788742336 0.06 0.04
0.5139034646412424 -0.06 0.0
0.9096368506350345 -0.020963842829632554 0.04
0.805541091654972 0.020469431563422978 0.0
0.8052789150181434 -0.019306901564895652 0.04
0.8203038938742353 -0.020636147377884773 0.0
0.08769719539554144 -0.06 0.0
0.08769719539554167 -0.06 0.04
0.9192992165657531 -0.06 0.04
0.8164681441220105 0.022269284396602723 0.039999999999999994
-0.9103536180674616 -0.021283841161765512 0.04000000000000001
-0.8777357995360431 -0.06 0.0
-0.9096368506350345 -0.020963842829632554 0.0
0.8570647961856006 -0.015388027432140593 0.04
0.7921016077200956 -0.06 0.04
0.8353421249080566 -0.06 0.04
0.7921016077200962 -0.06 0.0
0.4135884955929341 0.06 0.04
0.43891524330526177 8.673617379884035e-17 0.0
-0.7921016077200956 -0.06 0.0
-0.08769719539554144 0.06 0.0
0.14473309882269605 0.06 0.0
0.1726925416005594 -1.214306433183765e-16 0.0
0.11621514710911884 1.214306433183765e-16 0.0
-0.029521960903255984 0.06 0.0
0.0 0.0 0.0
0.17269254160055947 1.1796119636642288e-16 0.04
0.14473309882269625 0.06 0.04
0.0 0.0 0.04
0.2006519843784229 0.06 0.04
0.22806385632140147 -1.1796119636642288e-16 0.04
0.22806385632140147 1.0755285551056204e-16 0.0
-0.6720046167250797 -0.020579604775701428 0.0
-0.7030120427199962 -0.06 0.04
-0.7030120427199952 -0.06 0.0
0.25547572826438003 0.06 0.04
0.30922577824843556 0.06 0.04
0.25547572826437986 0.06 0.0
-0.02952196090325599 0.06 0.04
0.2006519843784232 -0.06 0.04
0.14473309882269605 -0.06 0.04
0.2006519843784229 -0.06 0.0
0.14473309882269625 -0.06 0.0
0.2823507532564078 -5.204170427930421e-17 0.0
-0.36192316205531716 -0.06 0.04
-0.41358849559293387 -0.06 0.0
0.5372746904547943 0.02439300391790418 0.0
0.5139034646412424 0.06 0.04
-0.5139034646412424 -0.06 0.04
0.41358849559293387 0.06 0.0
-0.7171469290115033 0.021165332718839136 0.04
-0.7479973317145417 0.06 0.04
-0.7030120427199962 0.06 0.0
0.08769719539554167 0.06 0.0
0.029521960903255984 -0.06 0.0
-0.02952196090325599 -0.06 0.0
0.02952196090325599 -0.06 0.04
0.02952196090325599 0.06 0.0
0.029521960903255984 0.06 0.04
-0.47805793986482265 0.03008719549728311 0.01940109733029794
-0.4642419910175897 0.06 0.0
0.6103276788742331 -0.06 0.04
1.0 -0.06 0.04
0.9600486361512205 -0.06 0.04
0.9600486361512215 -0.06 0.0
-0.3092257782484355 -0.06 0.0
0.877735799536044 -0.06 0.0
0.8777357995360431 -0.06 0.04
-0.41358849559293387 0.06 0.04
-0.4135884955929341 0.06 0.0
1.0 -0.06 0.0
1.0 0.0 0.0
-0.14473309882269605 0.06 0.04
-1.0 -0.06 0.0
-0.9600486361512215 -0.06 0.04
-1.0 -0.06 0.04
-0.7921016077200962 0.06 0.0
-0.9192992165657531 -0.06 0.0
-0.9600486361512205 -0.06 0.0
-0.7921016077200956 0.06 0.04
-0.7766984080639845 -0.02052537972713625 0.04
-0.5625923446839085 -0.06 0.04
-0.5625923446839077 -0.06 0.0
-0.877735799536044 -0.06 0.04
0.7921016077200962 0.06 0.04
-0.3619231620553172 -0.06 0.0
-0.7479973317145423 0.06 0.0
-0.8777357995360431 0.06 0.04
-0.4135884955929341 -0.06 0.04
-0.46424199101758934 -0.06 0.0
0.513903464641242 -0.06 0.04
-1.0 0.0 0.04
-0.877735799536044 0.06 0.0
-0.30922577824843556 -0.06 0.04
[...]
POINT_DATA 584
VECTORS displacement double
-0.071530413311865 0.06460210960952471 0.013824201670881112
-0.096103511819711 0.059740500704719035 0.010235245669722386
-0.09556961164921712 0.016335633766192105 -0.011516287621710487
0.048435385143471614 -0.11218556455300385 -0.01506091752549045
-0.004800597598395823 -0.003750086035067544 0.00031104122156234304
-0.003009267319901109 -0.0013936740930470168 9.940089671314481e-05
-0.0010265986028664953 -0.006016533243728838 -0.004506027171129082
-0.003831950206307819 -0.001139238073870995 -0.0011634418748308767
-0.00558251382722735 0.004714430119900307 -0.00013495374268364827
0.0012067909853932595 -0.0006565618085404062 -0.0013508354149164277
-0.0011123173123449663 -0.01056270181822642 -0.0006726054370450898
0.0011031567189045456 -0.001333088631081673 -0.0039015916613355413
0.0024252219462310314 -0.0051754014668041245 0.0012690300294379829
0.005681862789433454 -0.007967066883426204 0.001994559345962158
-0.0001958896557939178 -0.0018054403031003456 0.0002857255117252855
-0.00554300232199379 0.0008479781724039782 -0.0017079222007022451
0.027292720559243543 0.15056842002758816 -0.011685907055057548
0.0327280652845767 -0.07435059979708354 -0.010133613112818978
0.08699421146163505 -0.14322834798686787 -0.009701103464095275
0.056635479127092735 -0.12214105036925067 -0.004902056474144318
0.008300785070591957 -0.007434995933582767 0.001712776173114521
0.011833080333689903 -0.01446986244325122 -0.00046885703700529356
0.00039480573542244557 0.015422570401890892 0.0063070141561611575
0.0011301099689122007 0.007704516727578084 8.325798251530262e-05
0.0010706142122916301 0.005552395534042288 7.004278072156076e-06
-0.0007642593074559808 0.009302659757835953 0.00011518669032151023
0.0034553897453934736 0.008511485417958965 0.0014506743956257619
-0.03431346668436594 0.007636990236236823 0.0016941905140963958
-0.01990983605850485 0.02423223635603656 -0.009781382389801255
0.022493752654996643 -0.03354952503612506 -0.0020984536958547156
-0.03599211312441432 0.037938273270360964 0.009855147627535735
0.003548342729049895 0.0005958907667679997 0.0005838981416089624
-0.005208347000182154 0.0021237984896806 -0.0003750702607888221
-0.0050607507611278415 -0.008536578995853432 5.13204675214738e-05
-0.0021460907420228015 -0.012970026721461393 0.004248744417071886
-0.0031455868909486193 0.0008049788888518904 3.468355059848902e-05
-0.0037453946955882046 0.00045875727017788545 -7.177424064051672e-06
0.00028086276828451554 -0.001950015287318377 -0.00045667524839722887
-0.00905994252294035 0.005437385740325986 -0.003660433776611406
-0.014364549728697855 -0.006277191745355389 -0.0016647647915415769
-0.002372791900005615 -0.002285313569587686 0.004237361510386111
-0.007390516760858078 0.0023016427055483906 -0.001499324423388956
-0.002805958233826847 0.004673143982544324 0.001672796873122528
0.005518410295537678 0.015621865262998826 0.003476483644470136
0.001666839056289664 -0.0029046203887300305 -0.0019860522511474733
0.004424466097068 0.006475710795671938 0.0007159883245613215
0.0018125465538120465 -0.0007574030989895012 -0.00026126523400092904
0.0020399203615547833 -0.00777325521307765 0.00011276704266358364
0.00230427856929975 -0.006049118068128086 0.0006100455560831364
0.0010666278984295626 0.010001934887356474 -0.0003955872649707378
0.005721131278373823 -0.015356719422586242 -0.001580908887653914
-0.00506310209045717 -0.0013746119342421298 0.0016844750304383079
0.0029982241335101438 -0.007799253506587777 -0.0011166881099197326
-0.003620451755009526 -0.002098956143509842 -0.002865685664970644
-0.0006520811877736482 -0.00037488189325306383 0.002501115827049423
-0.029662633528345056 -0.0011380669370420482 -0.009135544487909436
-0.029180076647209424 0.03634125989005237 0.019675941041700888
-0.024838560754792287 -0.045723167283677105 -0.007773090273931712
-0.0006247110625029137 0.0015504625219302042 0.0026272592175867375
-0.007256762463904544 -0.0013772591774220406 -0.0019987996167239305
-0.0020145433944040035 -0.00790610411654262 0.0008202315834885176
-0.005685986950857946 -0.0013581997329718113 0.0005106462095644959
-0.002046308322404338 0.003100068997849987 -0.0006652480760303152
0.0010658774782063706 -0.0030896023678794243 -0.0010101805313346064
0.002025533806480349 -0.0030089714558705644 0.00029919230976551347
-0.0006703065617078258 -0.0010312379464108104 0.001243872507169082
-0.001225181283295218 -0.0006519676414608251 0.0011952430538791612
-0.0011386181428792725 -0.0037486015626090586 0.00039764643382645656
-0.001166114290559466 0.00034032376170479555 7.985112958442375e-05
-0.0009623679688688315 -0.00012565741346126354 -0.0002121049453060998
-0.00030320475537567223 -0.0033729535469530056 -0.0009335946335469385
-0.006270235416851973 -0.009049926002369627 -0.004739723137224826
-0.0013229697967410896 0.0012289123459130339 0.001103439774032003
-0.0004246283842442722 -0.002870242801576277 0.002874331236314275
0.03698104431944456 -0.09348247572504768 0.028004457606304725
-0.0003826174809508254 0.004119024654705347 -0.0012430106777459521
0.0028382807708196376 0.00023822949230157165 0.0003361260580832247
-0.005149640984492958 0.008732435339014738 -0.001617238539538788
-0.0013882035228996131 -0.002580858772230069 -0.002086588052797647
-0.005291843864310068 0.010013990139532464 -0.00025044243085268114
-0.004832639671006555 0.00519563424063958 0.0003859446830999814
0.014988401884407178 -0.028311450239206993 -0.003441875839310991
-0.019170802987771723 0.012909015238772779 -0.005110037900608529
-0.0071036865338452255 0.10009334373228147 0.007577632889539876
0.003965385832801906 0.03712367508244573 -4.487949683458442e-05
-0.00948252020869212 0.013355264770685344 -0.0027094591081357347
-0.017104891933257434 0.019523670291660668 0.019631232921792145
0.009087525779846341 -0.039409085211497455 0.0016742049155472518
-0.009956658265712357 0.0034247452207939394 -0.0019111310228133386
-0.00179120472255639 0.0058497001175129605 0.0012617084572580583
-0.012156005049050265 0.012540201968781006 -0.008937052306521804
-0.01492690549211391 0.03798281672092001 -0.00806291042752383
-0.021439506350782206 0.058495392351509364 -0.007389391591405696
-0.018685641358152347 0.028356400580030614 0.010747920924849034
-0.052622662693707516 0.027979817737788005 -0.020545930777600394
-0.022188994929564165 0.02301411008242336 0.005759061692716884
-0.025149438124564976 0.022941438589619598 0.006003570555255708
-0.0001254715319035174 0.004658244704748344 0.0005446068429245856
-0.03799944825459046 0.07134648746364977 -0.021445296749736734
0.008918608954823043 -0.0023942511243445156 0.014908424550619618
-0.030356026397710952 -0.049813387126412714 0.005999464733435815
0.009901685361269891 -0.012707606793824275 -0.0003318866825150462
-0.011694337488528337 -0.03564857235005522 0.00945625971702027
-0.0030969418739930877 0.009001694040839864 0.0006795156150372875
-0.006482885909180843 0.007128736770830702 -0.0017208714256552345
-0.006419397944135767 0.004193248212376065 -0.00043491064140837915
0.0028949365621983645 -0.018087214270931663 0.0001679705545507504
0.0038415032267704093 -0.024430634000664295 -0.0032770086788258615
0.002496838947273862 0.0015299909450175323 -0.0016581138439244287
0.0036515001111416864 0.0232914127805728 -0.006617738423460873
-0.00021460987755866725 0.015810193023784672 0.00029178743147622145
0.0013650502644018874 -0.003151798969268739 0.0003995376608466703
-0.00045535682272424645 0.005389156874560731 -0.0006240327635500544
0.0038104553897620338 -0.003490324200554954 0.0004951787462859023
0.002666246636342897 -0.002974094895364732 -0.00021082745545321217
-0.005094149079395852 -0.004416778936002475 -0.0003417988193000061
-0.004949090295351239 -0.0014432251333539067 -0.0024410945013754195
-0.0034555249110107505 -0.0029489310358338703 0.0027507491841167655
-0.00593159573254447 0.0014177472333325072 -0.0008648749482407949
-0.0069514960941455635 -0.004745271634216949 -0.0011060799976416193
-0.0012436805174735222 -0.016868012980581888 0.0030221401235979604
-0.0030277610123161333 -0.006336446930676091 -0.0008269797977783976
0.0037109946911115556 0.003406834788126605 0.0008594358521997525
0.0008109080164641002 0.007953603556537348 0.0010872191081395084
0.002029308548383545 0.004730143932358982 0.0013037458854864032
-0.00022712104535447893 -6.667896528872027e-05 0.0003463284126145162
0.0007578583830562074 -0.004900723482107024 -0.0008271412001690935
-0.004110006074599605 -0.007243535758626572 -0.001305128381680367
-0.007837667164684942 0.003186219459199681 -0.00285100628044906
0.003245710552105438 0.0015131027016688206 -0.0004242835522844057
-0.0016572747650399143 -0.011107530785268037 0.000652576603136029
-0.0025562567366735653 -0.0014911283453599017 0.0012063260583900935
0.0009590783018195056 0.003136293109558698 0.0012606549215859136
-0.001692510445719932 -0.0014802076491616134 0.0016539673460905834
-0.0035131367447451974 0.0020488005023044493 0.0005044631102204417
0.0010510024039986148 0.002936514990956503 -0.0008376541500846795
0.002873573658048823 -0.004467208534636804 -0.0007759788962755842
0.0010549632962949332 -0.007026019575384001 -0.0001476251687540621
-0.00252824672346463 -6.0942784529529665e-05 -0.0004958001638085339
-0.0011259902217256195 -0.0004348208220095445 3.1614431285574316e-06
-0.005536370745583527 0.0008753418857546881 0.012265113701105198
-0.00046001545493952266 0.0004473502854011202 0.00017523710550361416
-0.0019063927332247327 0.00015622423796696991 0.000829212205963758
-0.0010528827755822917 0.0002662262757536638 -0.0003761175202709675
0.0029522366451287365 -0.005848707997778482 -0.0009701734763721167
0.0023316320114503022 -0.005597792195570709 0.0004995463625182378
0.003262104758089934 0.0025463900859287484 0.00012365946576936993
0.001388239324565968 -0.0028694034383824653 -0.0007266147921018023
0.007980702622446142 -0.017415356647474487 -8.954860840482922e-05
0.10544796731935131 -0.03688790203068637 0.013697936998630075
0.04395812302110908 -0.06892622730827126 0.0045591413251388135
0.07610787085935761 0.03550348673445558 0.005821852481996127
0.07453648461981344 0.0895667172349562 -0.022403002533063484
0.13204345205948992 0.06203932631288214 0.009030411373320037
0.005908341284832366 0.011695088569809227 0.002450434225253167
0.0025566705991259355 0.010285760153304577 0.0007036262528010386
0.0032343309187012797 -0.0029871239567548146 9.447177631978475e-05
-0.0015035342474993456 0.001468244174494057 0.0006237603766812525
0.0024257975762722217 -0.005927000524046094 0.00012817521802664425
0.004315849974533837 -0.0026502736733556714 -0.0012723754777256842
0.030614456472001537 0.02735539454386398 -0.010650085371898595
0.029859761839363324 0.024943970900583718 -0.0011126422963026294
0.018149704621671713 0.007368190968817653 0.008823326618926163
0.00938692317610021 0.0008920573464365875 -0.015231831167718455
-0.00373389890215023 -0.001653825939373232 -0.0012750025888313581
0.0018228087516004017 0.005223501863297709 0.0006128869844336692
0.0034594813378128987 0.006703328728150931 -0.0017448738443508122
0.0003920062713266138 0.004344813667789008 -0.0010843476355974178
-0.0009230386801512425 -0.005633051243682365 0.0013947864361390956
-0.0006338732978960998 0.004438731585261934 0.0020092017516361066
0.0002607231146137012 -0.0017019751273615574 -1.9579782824334832e-05
0.0034367074576242282 8.226047731374315e-05 -0.0005807577030979383
0.0011785398395261447 -0.004081686745936825 -0.00025168506334404504
-3.954682917528011e-05 -0.002742495751451225 -0.0003569746434198808
-0.0015100362447870673 -0.015978421442189156 -0.0010427662531492623
0.002777732024302409 -0.022712709585986195 -0.0034706569963171502
0.0008438695269496325 -0.003933369124964707 -0.001082406281686878
0.0031713494838688477 0.006550974218013062 -0.0018893158455513316
-0.029322645834197997 -0.0315163075778298 -0.006383953918622398
0.016822026082963425 0.017719405264944487 -0.036984851273339676
-0.042133609420438804 -0.011567015257621133 -0.009492166166057933
-0.001474097703583118 0.0027739689082716687 -0.0004059064220094201
-0.0011859444786383622 -0.009464672063731652 0.0002991208742279052
-0.0004772370473686695 -0.001767621952253443 -0.0009819747412367335
0.00122414766308073 -0.005243875371363878 -0.0009173991455972412
0.0006174686318380504 0.009922642220429148 -0.001273019200220464
-0.0016428937375680807 0.0022426762932317226 0.00015493305201008358
0.040140076275599165 0.0949499035847048 -0.010283154907714974
-0.0012622691857317268 0.012909227123764655 -0.0016347843880235033
0.000677240983705914 -0.0017146076204974017 0.0007657987451433974
0.0006082739515232735 0.0012341090327265985 -2.116707560481273e-05
-0.004295959864083649 -0.001133841639127137 -0.0003599402139711276
0.0017130003115790595 -0.008480675079882167 -0.0017085721944555766
-0.0004230140270654361 -0.005686538209440721 -0.0006052631210830117
-0.00092777329993129 -4.141656121649105e-05 0.0016975326730066767
-0.0008316342174565711 -0.0019429118523320626 0.0011227956021508392
-0.0018450880984950007 -0.006797994526763668 0.0022621362690839887
0.0032921044952174796 -0.009375230956049673 0.0017306724986506903
0.002681759267562941 0.0005618614943544198 -0.0011435995771657782
0.0017315835523272548 0.00046711894543842084 0.0005492894543426032
0.004831603515365143 -0.01857065662718471 0.000757782754591349
0.0385793249879094 0.05357570402829479 0.016235843031290543
0.02716779189623024 0.03775312562928267 0.014696006860167896
0.003743115732604936 0.01798137607720389 -0.0036839611478435346
-0.002188023927202028 -0.012599966501226068 0.0019944886987820105
0.00017254279044073888 0.01253214701457882 -0.0018179168817578871
0.0021652589749823546 -0.012849788736181138 0.002707448523692597
-0.0019203057296686037 -0.0012163287726000933 -0.0007512501744078421
-0.0045843112284699936 0.014916835146549732 0.00401327204295837
-0.00010406642841038936 0.0001716422331166003 -0.0012572723462397487
-0.0025248501944352356 0.009827624535481813 -0.0020584587989260117
-0.002774106934154083 -0.005848334817250259 -0.0001087057796337078
-0.0010465077693445964 0.007166614008713291 0.001415481201276835
0.0036088314945217498 -0.017875203572388133 -0.0005776325377031376
-0.002054012473589682 -0.00310554290488842 0.0012819530065113888
0.0005058906448042065 -0.0027388256109578224 0.0013505426747933056
-0.00482561927591986 0.010941621040021499 0.0002452669310107257
-0.0006862158254513159 0.007085381184399956 -0.0010187198418596004
-0.031449540904840145 -0.02994050590062035 -0.005413237703428328
0.03580939091420962 0.10193908623829032 -0.013246584824200025
0.020175407642071985 -0.021778406834758107 0.010780795499348237
0.0025003747968609666 0.00468836756238624 0.0003162208512888704
0.005159350513678764 0.0072426495505864144 0.0017261597328605003
-0.0038357789714794747 0.006633857211630702 0.000826790673494293
0.005900044547595705 0.01146189555704508 0.0014398562236423052
0.00030000794533489964 -4.2626111488445884e-05 0.0002476180840251838
-0.0030591971018896417 0.0003205127225099639 0.0004774721461053091
-0.0007448173463421734 -0.006188432602137344 0.0018998377136865664
-0.011780052032902732 -0.005092627827044311 -0.0013394156543548729
-0.0035289961748688555 -0.0021738122446287723 0.0005813052460202059
-0.0007288324743080881 0.001386943481985615 0.00038666313600518
0.00011112459732133202 -0.00246936855469882 -2.1201217517274696e-06
0.0011048692760496754 -8.958351936726573e-05 -0.0006575609155812977
0.003060689313808217 0.010257758223736334 -9.081050821250948e-05
0.0005196893736049645 0.005060829856816836 6.979115155294578e-05
-0.0006292969796901892 0.0069692341718218635 -7.62430019438756e-06
-0.008392009632578813 0.015434335537627367 -0.006686116018825624
-0.006819787446910723 0.010710563314350115 -0.002608286050864395
0.0011681645323407897 0.001472901600701762 0.0010599302796795618
-0.001418087958838242 -0.0005381763747288318 -1.510101834554229e-05
0.0037180049859175048 -0.006936189020038831 0.0022763893542314096
0.08254036508011259 -0.1621128381212097 -0.002880453099422095
0.055720638105113955 0.043285460482262735 0.026821747033053206
0.10279593890847122 -0.2746870601758146 -0.00034901081366535793
0.027250732504656133 0.005602598701507021 0.0008821076398693337
0.00522334437900039 -0.008582782207132992 -0.006914187983880712
0.045271438131520354 0.006313194494534265 0.0099204189863957
0.03468615964575082 0.027297193971003674 -0.018174779258490082
0.03697021988743005 -0.11834485947961314 -0.00330967830290176
0.008780045846852661 -0.03532425137210715 -0.009082161539748307
0.008547845985512677 -0.0259897035638833 0.00017180173126731573
0.010055717082006903 0.0401988396900191 -0.016204274684972722
0.013125067408425652 -0.021933588355762347 -0.0015790788529237787
-0.0019053286655822098 0.004673228559370984 0.0006492413526638774
0.01815096847861967 0.06604704684990943 -0.008414435705726135
-0.00478184737636801 0.14730902412444083 0.017279036501317895
0.003482275915773577 -0.02363083998575306 -0.004414725025701849
0.001324487951382742 0.011496544125834791 0.0016781165219803902
0.00022900153690643232 0.008993173606535416 0.0014510035787848583
-0.05561642016877711 0.11837045104135446 -0.012088559800932843
0.02641377914822725 0.1210255412762143 0.02992360124540542
0.0028686082757316883 0.016097299708798782 0.0012908748510504521
0.0008923542502714517 -0.020350757892667826 -0.0030207875664635714
-0.0032697570799473676 0.017443013219347343 -0.004904784979721694
-0.00017765908868493617 -0.0038353670597904414 0.00015497909732878793
0.0023190899613384727 -0.015671449675252587 -0.000978185590198965
0.10451609406076824 -0.024562130604686063 -0.021447582636410365
0.011084836190377229 -0.014663771680368996 0.0005514969002331142
-0.018401333883652306 -0.013704363918310484 0.0068167980827371156
-0.004755543415603714 -0.02796157504186487 0.014164104677089357
0.0015281259508690384 -0.0003899628772402713 0.00016388499076384503
0.12962339810188409 0.055804940399742535 -0.00624442107691096
-0.013044497129449854 -0.023479211811906025 0.003936414773823586
-0.007058453024037187 -0.0007733550686590947 -0.001461001095989747
0.042607671304702825 -0.01725613097566083 0.017056946438414485
2.6976953241406435e-06 -0.019507756464072323 0.0024673110779383886
0.004600410055985406 0.01556404521266411 0.0008121221933256159
-0.0033841216413511553 -0.0035985492043107206 -0.0009270693576404792
0.0011616765850850795 -0.0015440330867981385 -0.00061730403284022
-0.0035747117710135876 0.006768804153074112 0.003476163944976985
-0.0021648535956320628 -0.0118757115272021 0.0031617254474445087
0.020844443629196227 -0.04228024424129787 0.029621164499068757
0.011634048201689022 0.023046900237729998 0.006876237188318488
0.013478986050618036 0.03787204427617771 -0.003974526103852434
0.012810683573507389 -0.014285785127768383 0.0010505028383897249
0.0010106214063417029 -0.003240713372203718 -0.0003281817808357461
-0.004365480125571451 0.004940995797204437 -0.0017195232589477282
0.06631970201018882 -0.029825059634789732 0.016813802402961507
0.0010077400535614196 0.007169066940479256 0.001829430610548785
0.0008498585600456346 0.008570856478354585 0.001395378407584193
-0.0004931528608314966 0.006483473730467638 0.000600388605875186
0.002194575586205026 -0.006517183559080622 0.0015501622529581576
0.10990704974220755 -0.008143489552490146 -0.0027526395381378293
-0.015184915040140561 -0.01846619341671452 -0.003242184124356032
0.009318555076715196 0.17396870186851526 0.033269408378829905
-0.047534413524257815 0.06862280667286014 -0.0076763939386638265
-0.005792958252328714 -0.0008718927645745592 0.001372510855355321
0.0469652591470735 -0.06074538222737806 -0.003320608577602953
-0.024853431786767556 0.013326869374612938 -0.013192996918223168
0.0008180366550946298 -0.01717620295996139 0.003312152812610821
-0.0014792607091591102 0.006980765691063027 -0.0016835050801645686
-0.008968926736231998 -0.002187184688866461 0.0006414733212559786
-0.011365047750887347 0.04360498434974366 0.007778098882686245
0.00606904783260888 -0.046613615679023265 0.005253842850045461