# vtk DataFile Version 2.0
Really cool data
ASCII
DATASET UNSTRUCTURED_GRID
POINTS 584 double
-1.0 0.0 0.0
-0.9600374798207896 -0.027590413451835553 0.04
-0.9589620457797374 -0.028177574718636023 0.0
-0.9553815213922792 0.019675326217199102 0.04
0.6719637381218919 0.02110482676547816 0.0
0.6414775595248179 0.020020515529780993 0.04
0.6571281419012174 0.06 0.0
0.6240641012293764 0.022292119262118645 0.0
0.687851041884645 0.021313940245698455 0.04
0.7030120427199962 0.06 0.04
0.657128141901218 0.06 0.04
0.7030120427199952 0.06 0.0
0.6885310613992013 -0.0196061899732657 0.0
0.6720046167250797 -0.020579604775701428 0.04
0.6407079554435648 -0.019738458112036637 0.0
0.7171469290115033 0.021165332718839136 0.0
-0.7921016077200962 -0.06 0.04
-0.7604373514312079 -0.019298436119384588 0.0
-0.7479973317145423 -0.06 0.04
-0.7479973317145417 -0.06 0.0
0.7030120427199962 -0.06 0.0
0.7030120427199952 -0.06 0.04
0.6571281419012174 -0.06 0.04
0.7479973317145417 -0.06 0.04
0.7325903506195701 -0.020274227246539274 0.0
0.7176321617908783 -0.019839353713154383 0.04
0.7604373514312079 -0.019298436119384588 0.04
-0.8488906624897727 0.019856366527450334 0.04000000000000001
-0.8052789150181434 -0.019306901564895652 0.0
-0.805541091654972 0.020469431563422978 0.04000000000000001
-0.8203038938742353 -0.020636147377884773 0.04
0.897529295217204 0.022569895749215793 0.0
0.8488906624897727 0.019856366527450334 0.0
0.8569454102823642 0.029774901726562965 0.04
0.8777357995360431 0.06 0.0
0.9553815213922792 0.019675326217199102 0.0
0.95349853104827 0.02147987272312249 0.04
0.9103536180674616 -0.021283841161765512 0.0
-0.5450807564691462 -0.01715484187473429 0.04000000000000001
-0.5372746904547943 0.02439300391790418 0.04
-0.49049502097572617 0.000359712426279548 0.04000000000000001
-0.5409244119327052 -0.005150142234760652 0.0
-0.48901428549955095 -0.02776609156780287 0.019771763033692314
-0.4642419910175897 -0.06 0.04
-0.43891524330526177 8.673617379884035e-17 0.04000000000000001
0.7479973317145423 -0.06 0.0
0.9600486361512215 0.06 0.04
1.0 0.06 0.04
1.0 0.06 0.0
0.9192992165657531 0.06 0.0
0.7479973317145423 0.06 0.04
0.7309057796957548 0.02177174945441851 0.039999999999999994
0.7479973317145417 0.06 0.0
0.7613659684934695 0.020945326906433456 0.0
0.7736855084518748 0.020914979208800512 0.04
-0.8570647961856006 -0.015388027432140593 0.0
-0.8569454102823642 0.029774901726562965 0.0
-0.8649535140731797 -0.02016838668923704 0.039999999999999994
-0.1726925416005594 -1.214306433183765e-16 0.039999999999999994
-0.22806385632140147 1.0755285551056204e-16 0.039999999999999994
-0.2006519843784229 0.06 0.0
-0.22806385632140147 -1.1796119636642288e-16 0.0
0.438611990705585 -5.252150912499892e-05 0.04
0.41358849559293387 -0.06 0.04
0.4135884955929341 -0.06 0.0
0.4642419910175897 -0.06 0.0
0.4782715374234063 0.0302584611690398 0.019894876072988572
0.513903464641242 0.06 0.0
0.49049502097572617 0.000359712426279548 0.0
0.46424199101758934 0.06 0.0
0.46424199101758934 -0.06 0.04
-0.8164681441220105 0.022269284396602723 0.0
0.48912437490067595 -0.00041996788971368666 0.04
0.4642419910175897 0.06 0.04
-0.8353421249080566 0.06 0.04
0.8649535140731797 -0.02016838668923704 0.0
0.8973163514988121 0.02144006532192878 0.04
0.5625923446839085 0.06 0.04
0.6103276788742331 0.06 0.0
0.5943416245309461 0.018901239582525348 0.04
0.5790918012159274 0.021628695864523574 0.0
-0.593631917725493 -0.01946781888421301 0.04
-0.6103276788742336 -0.06 0.04
-0.6407079554435648 -0.019738458112036637 0.039999999999999994
-0.6264545933043166 -0.021459100211208025 0.0
-0.6103276788742331 -0.06 0.0
-0.6103276788742336 0.06 0.0
-0.6240641012293764 0.022292119262118645 0.04
-0.6414775595248179 0.020020515529780993 0.0
-0.5943416245309461 0.018901239582525348 0.0
-0.5790918012159274 0.021628695864523574 0.04000000000000001
-0.5625923446839077 0.06 0.04
-0.6103276788742331 0.06 0.04
-0.5625923446839085 0.06 0.0
-0.7325903506195701 -0.020274227246539274 0.039999999999999994
-0.7176321617908783 -0.019839353713154383 0.0
-0.7309057796957548 0.02177174945441851 0.0
-0.7736855084518748 0.020914979208800512 0.0
-0.7613659684934695 0.020945326906433456 0.04
-0.6571281419012174 0.06 0.04
-0.6719637381218919 0.02110482676547816 0.039999999999999994
-0.7030120427199952 0.06 0.04
-0.687851041884645 0.021313940245698455 0.0
-0.029521960903255984 -0.06 0.04
-0.05860957814939871 -6.938893903907228e-17 0.039999999999999994
-0.05860957814939863 5.898059818321144e-17 0.0
-0.08769719539554167 -0.06 0.0
-0.08769719539554144 -0.06 0.04
-0.2823507532564078 -5.204170427930421e-17 0.04
-0.25547572826437986 0.06 0.04
-0.25547572826438003 0.06 0.0
0.38751191920162714 6.938893903907228e-18 0.0
0.3352618020299945 -3.469446951953614e-18 0.0
0.36192316205531716 0.06 0.04
0.3619231620553172 0.06 0.0
-0.36192316205531716 0.06 0.0
-0.335244821032008 -1.1796296425746478e-06 0.0
-0.3352618020299945 -3.469446951953614e-18 0.039999999999999994
-0.38745316199969926 -7.894682722445895e-06 0.0
-0.3619231620553172 0.06 0.04
-0.3092257782484355 0.06 0.04
0.28235075325640757 5.551115123125783e-17 0.039999999999999994
0.30922577824843556 -0.06 0.0
0.335244821032008 -1.1796296425746478e-06 0.04
0.3092257782484355 -0.06 0.04
0.36192316205531716 -0.06 0.0
0.38745316199969926 -7.894682722445895e-06 0.04
0.3092257782484355 0.06 0.0
-0.38751191920162714 6.938893903907228e-18 0.04
-0.28235075325640757 5.551115123125783e-17 0.0
-0.30922577824843556 0.06 0.0
0.6103276788742336 -0.06 0.0
0.593631917725493 -0.01946781888421301 0.0
0.6264545933043166 -0.021459100211208025 0.04
0.4889627886584896 -0.027603176797077415 0.020155725176282127
0.583287522480325 -0.023728770665855194 0.039999999999999994
0.5450807564691462 -0.01715484187473429 0.0
0.5409244119327052 -0.005150142234760652 0.04
-0.48912437490067595 -0.00041996788971368666 0.0
0.3619231620553172 -0.06 0.04
-0.657128141901218 0.06 0.0
0.9600374798207896 -0.027590413451835553 0.0
1.0 0.0 0.04
0.9589620457797374 -0.028177574718636023 0.04
0.5625923446839077 -0.06 0.04
0.5625923446839085 -0.06 0.0
0.7766984080639845 -0.02052537972713625 0.0
-0.438611990705585 -5.252150912499892e-05 0.0
-0.583287522480325 -0.023728770665855194 0.0
-0.9600486361512215 0.06 0.0
-0.95349853104827 0.02147987272312249 0.0
-0.9192992165657539 0.06 0.0
-0.9192992165657531 0.06 0.04
-1.0 0.06 0.0
-0.14473309882269625 -0.06 0.04
-0.14473309882269605 -0.06 0.0
-0.11621514710911887 -1.214306433183765e-16 0.0
-0.17269254160055947 1.1796119636642288e-16 0.0
-0.14473309882269625 0.06 0.0
-0.11621514710911884 1.214306433183765e-16 0.039999999999999994
-0.8353421249080566 -0.06 0.0
-0.8353421249080575 -0.06 0.04
-0.8973163514988121 0.02144006532192878 0.0
-0.897529295217204 0.022569895749215793 0.04
0.11621514710911887 -1.214306433183765e-16 0.039999999999999994
0.05860957814939871 -6.938893903907228e-17 0.0
0.05860957814939863 5.898059818321144e-17 0.039999999999999994
0.08769719539554144 0.06 0.04
0.6103276788742336 0.06 0.04
0.5139034646412424 -0.06 0.0
0.9096368506350345 -0.020963842829632554 0.04
0.805541091654972 0.020469431563422978 0.0
0.8052789150181434 -0.019306901564895652 0.04
0.8203038938742353 -0.020636147377884773 0.0
0.08769719539554144 -0.06 0.0
0.08769719539554167 -0.06 0.04
0.9192992165657531 -0.06 0.04
0.8164681441220105 0.022269284396602723 0.039999999999999994
-0.9103536180674616 -0.021283841161765512 0.04000000000000001
-0.8777357995360431 -0.06 0.0
-0.9096368506350345 -0.020963842829632554 0.0
0.8570647961856006 -0.015388027432140593 0.04
0.7921016077200956 -0.06 0.04
0.8353421249080566 -0.06 0.04
0.7921016077200962 -0.06 0.0
0.4135884955929341 0.06 0.04
0.43891524330526177 8.673617379884035e-17 0.0
-0.7921016077200956 -0.06 0.0
-0.08769719539554144 0.06 0.0
0.14473309882269605 0.06 0.0
0.1726925416005594 -1.214306433183765e-16 0.0
0.11621514710911884 1.214306433183765e-16 0.0
-0.029521960903255984 0.06 0.0
0.0 0.0 0.0
0.17269254160055947 1.1796119636642288e-16 0.04
0.14473309882269625 0.06 0.04
0.0 0.0 0.04
0.2006519843784229 0.06 0.04
0.22806385632140147 -1.1796119636642288e-16 0.04
0.22806385632140147 1.0755285551056204e-16 0.0
-0.6720046167250797 -0.020579604775701428 0.0
-0.7030120427199962 -0.06 0.04
-0.7030120427199952 -0.06 0.0
0.25547572826438003 0.06 0.04
0.30922577824843556 0.06 0.04
0.25547572826437986 0.06 0.0
-0.02952196090325599 0.06 0.04
0.2006519843784232 -0.06 0.04
0.14473309882269605 -0.06 0.04
0.2006519843784229 -0.06 0.0
0.14473309882269625 -0.06 0.0
0.2823507532564078 -5.204170427930421e-17 0.0
-0.36192316205531716 -0.06 0.04
-0.41358849559293387 -0.06 0.0
0.5372746904547943 0.02439300391790418 0.0
0.5139034646412424 0.06 0.04
-0.5139034646412424 -0.06 0.04
0.41358849559293387 0.06 0.0
-0.7171469290115033 0.021165332718839136 0.04
-0.7479973317145417 0.06 0.04
-0.7030120427199962 0.06 0.0
0.08769719539554167 0.06 0.0
0.029521960903255984 -0.06 0.0
-0.02952196090325599 -0.06 0.0
0.02952196090325599 -0.06 0.04
0.02952196090325599 0.06 0.0
0.029521960903255984 0.06 0.04
-0.47805793986482265 0.03008719549728311 0.01940109733029794
-0.4642419910175897 0.06 0.0
0.6103276788742331 -0.06 0.04
1.0 -0.06 0.04
0.9600486361512205 -0.06 0.04
0.9600486361512215 -0.06 0.0
-0.3092257782484355 -0.06 0.0
0.877735799536044 -0.06 0.0
0.8777357995360431 -0.06 0.04
-0.41358849559293387 0.06 0.04
-0.4135884955929341 0.06 0.0
1.0 -0.06 0.0
1.0 0.0 0.0
-0.14473309882269605 0.06 0.04
-1.0 -0.06 0.0
-0.9600486361512215 -0.06 0.04
-1.0 -0.06 0.04
-0.7921016077200962 0.06 0.0
-0.9192992165657531 -0.06 0.0
-0.9600486361512205 -0.06 0.0
-0.7921016077200956 0.06 0.04
-0.7766984080639845 -0.02052537972713625 0.04
-0.5625923446839085 -0.06 0.04
-0.5625923446839077 -0.06 0.0
-0.877735799536044 -0.06 0.04
0.7921016077200962 0.06 0.04
-0.3619231620553172 -0.06 0.0
-0.7479973317145423 0.06 0.0
-0.8777357995360431 0.06 0.04
-0.4135884955929341 -0.06 0.04
-0.46424199101758934 -0.06 0.0
0.513903464641242 -0.06 0.04
-1.0 0.0 0.04
-0.877735799536044 0.06 0.0
-0.30922577824843556 -0.06 0.04
[...]
POINT_DATA 584
VECTORS displacement double
-0.0194068632672815 -0.056989426532393264 -0.030025792387615175
0.007862033480636299 0.06193596686785871 -0.008542227799073083
0.0059959533121935514 0.05402138040518057 -0.02911326057698227
-0.0032419396973457455 0.029405142316869876 -0.01070058859284146
-0.017020245074099206 0.0037122294733767675 0.030948322514917147
-0.019139012920271765 6.28007301537919e-05 0.01172177129472244
0.0065488249668041836 0.009830827222421325 0.023771391761696015
-0.01576429971884257 -0.0016388811011275174 0.019275848731374938
-0.02138389589534086 0.005199506931306253 0.02518094977056425
0.014727070299904712 -0.0017255145198852343 0.02044798804266832
0.0043157348634949196 0.01699699678371025 0.0078035281344580355
0.013089491339733342 -0.001357330745327398 0.03126638336571009
-0.020795056553571677 0.002126794441058569 0.03218736085029351
-0.022255730138690616 -0.011445551768755922 0.01748681822286976
-0.01610331454600731 -0.010311539140267192 0.026192171374448733
-0.011136811483914866 0.0035418803203856085 0.036389607248637254
0.02101166768802363 0.04986517623106484 0.010779116911390212
-0.0028305178439337456 0.019247907433387258 -0.023242553797436637
-0.008786879227582287 -0.02328463964009914 -0.006098552835208321
-0.00286692844413984 -0.025505181605525295 -0.014029232502250518
0.03343426636406862 0.008419290195866859 0.037858376966849884
0.03046775812712779 -0.008372220015604193 0.007912476095233191
0.01803056524568628 -0.027084722977496596 0.010959725079874841
0.019759579013892664 -0.02030180408536046 0.0189676047470104
-0.011003880506979223 0.01380578515611279 0.040478502118696226
-0.018138019209247822 0.03184431050877515 0.02468885656487453
-0.007839553767091965 -0.00761596247424304 0.027379325716482442
-0.01263983593771175 0.05201297859492274 -0.011710564428340082
-0.008428608153857134 -0.044848784076230594 -0.024467998631973367
-0.027466001073059423 -0.06203334750247933 -0.020927489665194574
-0.019580557330890667 -0.04772888834356558 -0.02175483424466522
0.0034596940699559934 -0.0026428367392397458 0.01763550145832432
-5.5059521240319755e-05 0.022010713325106544 0.03066772705331621
0.00445020171870631 0.025642667814772233 0.019624103585622724
0.030540791872988807 0.011655922017019094 0.02303957602649963
0.006800780864727008 0.00684194001468765 0.002078960044806105
0.011420517673727806 0.006565760505288196 -0.002044595040288504
-0.010652536500427577 0.003973192778928826 0.00879899449992633
-0.021688008836330323 -0.0033409841752751034 -0.012101280824954047
-0.012409135180360317 -0.00471977424758012 -0.014974608907541005
-0.02789299833147341 0.008388391463852923 -0.006203208947064559
-0.027991065431175653 0.0017941655765653537 -0.021105872424275106
-0.01568418887335808 0.010351511704987411 -0.011134807741869167
0.00044883322882091864 0.0009126959154622531 -0.007155579713311401
-0.027602162866478777 -0.014213882441572453 -0.004758158337768083
0.024238143320931178 -0.008302597243496414 0.031547479928322325
0.032800877502046445 0.008653047065479912 -0.0033522538845118673
0.030372270093320337 -0.018923327611508348 -0.007118012055567979
0.028248109921285534 -0.023433387300288197 -0.007128920349525418
0.027076398757294576 0.0026361830818785836 0.010684067324511017
0.005997195439560863 0.03343688576329494 0.02068602272179679
-0.005081909953784438 -0.007311650774661716 0.02918679768660477
0.0106228013846113 0.0227286287447469 0.04082454514989412
-0.007337932709883094 0.010395456459078595 0.04481287911851922
-0.011237082751064905 0.013068138375952791 0.027907310301493897
0.030014426421029233 0.05703271921472288 -0.024690721553504436
-0.009155872759443413 0.04755153855700609 -0.02287548088608558
0.026809949046334436 0.05701425110555132 -0.015638675186035674
-0.027855100739069223 0.0009734357840894499 0.006790091720573238
-0.02802254662269377 0.0033946770351090177 0.00991234213717432
0.022505254223196165 0.02169314377964022 0.025438010725061
-0.02819092070311843 0.006077781011309029 0.023046526138719155
-0.025869819722868316 0.0014461571174078079 -0.0002783515399777536
0.02788728176900108 0.005666781534199371 -0.009469327665990953
0.03266073932149152 0.010098016251955751 -0.015450771981271759
0.02955866942582373 0.008163828595819338 -0.0069888108232654435
-0.0053918142434292255 0.0026608945804272913 0.0046499698637832015
0.013878289457774435 0.0005598861464040619 0.005706569199483627
-0.020836183205211866 0.002559181368964632 0.0035136513640646174
0.015850499390417397 0.004186874755360942 0.00497436307385127
0.02292792650984467 0.006442996259792123 -0.00042247342949724255
-0.020829155452330998 -0.03281003838024197 -0.031041840173702522
-0.02582426459548886 -0.00019641924133526046 0.0029718632836372755
0.01298874945749526 0.002156528619877681 0.004953745439857327
0.04346483335451877 0.03480532572000306 -0.014994089761762927
-0.022171040751406787 0.012851479565895156 0.022796038904120765
0.0006722064556480296 -0.01031476307485755 0.008163063679182849
0.010799023203514311 0.008019976471155729 -0.001354821783694728
0.009080804572698924 0.007604804688081959 0.010967544737763905
-0.01765871729189942 -0.0001204267630319337 0.005389556919258135
-0.014707668496958357 -0.004135223875046277 0.012459045844805443
-0.021536586521081272 0.005440486957204145 -0.012371347789921095
0.007599505611180179 0.015567323117681595 -0.0052053799192590166
-0.02773447764837978 -0.001250350385658019 -0.020045654348482014
-0.02223790257780158 -0.003592430661035659 -0.030336285529900073
0.005713255950898564 0.005165963967364325 -0.017916888929900742
0.04109254721114231 -0.020770909751202073 -0.004885483946417976
-0.00985377148708527 -0.02924646404985154 -0.016135188262151802
-0.00711394807089296 0.000320137215999291 -0.027336998850586824
-0.0026546755507968786 -0.014583611784815606 -0.023119683401446656
-0.0033742231514230425 -0.021039669468626676 -0.0168663321831819
0.020134851511670587 0.029690107923624025 -0.011091154936040196
0.041022217112525725 -0.019934154115728617 -0.006655853791292926
0.02534386511412078 0.02462615724733719 0.0019811423355162302
-0.017409422978372512 -0.027300985624432752 -0.02008867869593735
-0.01770098481951066 -0.015996934177229916 -0.039574583339825005
-0.004461434301346452 -0.019720515242407602 -0.03785238183994078
-0.0070518127072578185 -0.003564587176824692 -0.04976666331784216
0.00603755166549312 0.04739409503449472 -0.026238202640243808
0.04657930985275426 0.007194530222722636 -0.014361821684401884
-0.010968604679250978 0.03579340462757727 -0.01954577186958119
0.03235140879790317 -0.018782887269294255 -0.010885259592071268
-0.005787905476086688 0.012539295679508318 -0.0400081893538392
0.036283096630056993 -0.012198464461431203 0.008076139789039476
-0.026056318636005923 -0.0030254440885663708 0.0031173162991276044
-0.0326346166052748 -0.007564323493751498 0.011615902705945785
0.02735117487583316 -0.017540180945967317 0.02059370464792467
0.030926756314931875 -0.013579091760899444 0.009470409267541079
-0.030280566384572816 0.0027262329299681588 0.01184804546484485
0.022350456275150494 0.014502000937045461 0.01616252933458941
0.02146508077998562 0.01909885833094072 0.027041458150720666
-0.019131626435520504 0.005919131052345761 -0.01436892782650587
-0.018666639959425576 -0.000864220383505147 -0.02389437156741535
0.015926827359678385 -0.009424840005725521 -0.007496358643854343
0.02138470020998671 -0.006209956230739011 -0.014624021572476604
0.019794573439698544 -0.004402930918850292 0.0055577623704532115
-0.025254174703056038 -0.0055884821582582265 0.013522672216873732
-0.027670365161477185 -0.0030105099384656105 0.007972405804851639
-0.02814471621599338 0.0013389301610473264 0.00440254466695102
0.01887282760894851 -0.004601555717414753 0.0018115562517037043
0.018742888051665463 0.009627454007053683 0.01037328522506134
-0.021920988225523005 -0.0005107947424044534 -0.015011210515687339
0.038044889997812255 0.013148627784848228 -0.025171422140270724
-0.021399776959372036 -0.0002891487886924474 -0.01240564472147578
0.03795108529601709 0.013134139786344295 -0.013415055395302427
0.036141893741569835 0.01161303958016123 -0.02341619548043127
-0.023850982310237166 0.0022299287072750904 -0.00730282871540104
0.020136487860926096 -0.02085862153920726 -0.02958194825143226
-0.031683211791465375 0.00480040387365725 2.8423502332213046e-06
-0.026792861390523195 0.003681666386644423 0.019725654024949867
0.022110001209221245 0.010578349785423082 0.01848430992521552
0.025530628318212914 -0.014302836417241544 0.025292606935842003
-0.01741425422789736 -0.010546225092902399 0.01774525114280644
-0.01989790805614003 -0.0013208298657528903 0.012145223715912295
-0.0017917739973953707 6.073396552041742e-05 0.0019102268376801734
-0.019861069203093773 -0.005969335626222989 0.009478130598879912
-0.015401667778425892 -0.006923090530026723 0.010564362213821009
-0.02654659846612532 -0.002725183996339934 0.004987158118762317
-0.026213794704274523 0.0047031480916813785 -0.012915028246848542
0.03474349292116258 0.009506620489476349 -0.01133198905974449
0.04723927227290417 0.015767262940214705 -0.018583002456705466
-0.011953717571602946 0.005179457877018919 -0.0010299909230083702
0.0038635586070556414 -0.027299237295898955 -0.0030665175872267784
-0.007645585175204857 0.0034574856979852258 -0.006063663937392972
0.01594810767987736 -0.01268261211543476 0.00842188042452752
0.02504884421731652 -0.016361478978881724 0.016666286536766575
-0.011749633298226498 -0.015156072033901105 0.0474030444085674
-0.0268809967484043 -0.012211314660858988 -0.004864856478628065
-0.021372959156154767 -0.006659112665079127 -0.022206568934452844
0.042995045340705994 -0.020184196328303556 -0.02996153452056501
0.0030631793983020017 0.028189676800772973 -0.022002931082714023
0.06674070708282667 0.005553156224259491 -0.01103576435482185
0.07479373797737714 0.025363167918021984 -0.001232385100363035
0.02398674815526613 -0.0900989724488556 -0.04258322920837184
0.028930399896787164 -0.016715292802439833 0.007629210188680149
0.025846505212567313 -0.017752006534834417 0.019226754860534014
-0.03136541298114708 -0.0017781002159291213 0.016047200075547316
-0.03009835176509178 0.0012300448473628013 0.01770561497866657
0.020320858573768853 0.015524144420829892 0.015756468564428895
-0.028027558770510146 0.002892243646335874 0.00264144047305261
0.022784758476163167 -0.0538273722035434 -0.022676238831689868
0.01366168735551714 -0.07716417696485528 -0.018200996651254447
-0.013238684535272846 -0.03590711193007649 -0.02236438089732818
-0.031889943878847714 -0.05790190964268017 -0.004949513254190734
-0.020660264138815363 0.0015989568412370766 0.0014208161557444767
-0.02970692959634781 0.0036589097316515793 0.005653886505800475
-0.0244978460264315 0.0007039741693622846 0.004492897948420671
0.027672322771699707 -0.0016166327344683427 0.006357366845994466
0.007835917512304733 0.016745453821899667 -0.0005144984114827167
0.024332008505831917 -0.008108175111994673 0.003403218163105802
-0.005293685015676278 0.001480557982946373 -0.0007014061790908988
-0.006585604798463983 0.007208340873563965 0.039887980204229824
-0.021319765514181247 0.0008023500905056018 0.02131609699982694
-0.02428164042804757 0.003506073889932975 0.03910345987959482
0.03577306154603418 0.011952304229765127 -0.005169433668713128
0.04250881825029775 0.005697825647231391 -0.0027487326885547287
0.022378788970256896 -0.01644754211798183 -0.00531150020109081
-0.002913207173008165 0.0032052927328806388 0.026397672387676246
0.0009274477282692477 -0.03924703834896363 -0.015132122505817148
0.045997307462744025 0.10359779395133105 -0.045997180224909784
-0.0047493518501269824 -0.020050208147410407 -0.03204270030988929
-0.018606050574102095 0.00643035189266298 0.012774586726125222
0.02156819945542104 -0.055947292871538004 0.030144597651612735
0.017783418266639005 -0.008997470128422013 0.009700884230598915
0.02028001060708991 -0.0350756463894571 0.035341661228738434
0.014528947440754128 -0.0048440831657720895 0.0020731064111988683
-0.02014567521851055 0.006034712936712125 -0.004337915161024488
0.03012932346813156 0.014201276596075535 -0.0005076945620240234
0.02178403337045561 0.009562754898904688 0.009438836930177587
0.01976255709865076 -0.007388485454575908 -0.006874196292183496
-0.025062268662271698 0.0021287942973295428 -0.015319818000737444
-0.029386645238867 0.005152819815032479 -0.0036434130228043017
0.02027695983397927 0.001961051076625344 0.0068812055963161384
-0.031979652071824585 -0.0018799611093118485 0.009017795500888806
-0.01881843149607119 -0.0004390924059371587 -0.006675934269989858
0.025296268612634374 -0.009150935920276661 0.0012128104820082447
-0.02595944659615367 -0.0003816557522376105 0.004652249087484631
0.02413483242857707 -0.015269394450744593 -0.011109317630316825
-0.020913468984619224 -0.0018398094012417527 -0.011411120560274483
-0.02269233230961419 -0.004471988488414115 -0.026955763439256836
-0.010791706701967836 0.013877448446574072 -0.034784478997178896
0.007197791356575568 0.042388589678073 -0.01766876757197693
0.014080754162130059 0.018382513379847514 -0.021300943432273872
0.021081823529344703 -0.019652890071872247 -0.01837438815563985
0.020106940086050833 -0.019639851031710974 -0.015126000911509533
0.019814488014267016 -0.022014070480397233 -0.03282477124115701
0.025748271611735256 0.0033518046423058625 0.0005135642878711841
0.042354590367331114 0.014335765762478962 -0.00860001721768386
0.04341906047919768 0.014251177059174624 -0.0068791343667051665
0.0397663175578415 0.013132431721130558 -0.02296504360212131
0.03843169764283423 0.01797414022654588 -0.015217679930194954
-0.020980203003096356 -0.0034713912417475195 -0.02729198185495698
0.010443012074085779 -0.0035314404773854396 0.007969637873876122
0.014799436036246767 -0.00695784978038844 0.004272110478372039
-0.011156237057781973 -0.0020794001478368386 0.007446833366196011
0.013575616796106665 0.0019098834055329683 0.0026713659974137833
0.00526331406090395 0.019310247136384174 -0.007230798191615503
0.01928249881428159 0.001194905761007158 -0.002198134928272036
-0.004563234356721142 -0.04348391273070173 -0.030289480371873272
0.0688734575120999 0.019949171811995434 -0.04086763612906813
0.036386050349607464 -0.011924989703409876 -0.02700936272748642
0.01899453057823217 -0.001160838249784842 0.003913622446574633
0.0317132774397177 0.0031375568505907043 0.004934182069351286
0.02831456130443403 -0.013964078216349981 0.013370933737152053
0.03829987054770688 0.0009507724321168584 0.0040097602477499935
0.01790450081222289 0.0022871999645225683 0.006679616539059006
0.02749918925824889 0.003082738314339624 0.0057809269234602965
-0.003332646664112021 -0.003686977753905697 -0.005594201052385967
0.019346916863336557 -0.003257446581509328 -0.0035850125320307505
0.02000395190298146 -0.012107096099171601 0.010023806308449394
0.01416432953563421 -0.007696131432921554 0.0002995446825273937
0.01871080779887473 -0.005647520613792107 -0.009612773542760397
0.010059429656797389 0.0023116373894774478 -0.007142270233241298
0.01873017003038162 -0.014211384198271825 0.01906748494171531
0.014173654780322528 0.013549215458593488 0.004872756487056466
0.02334721498356232 0.0001531497824643914 -0.002461460717285211
0.0132430284865644 0.009083107241169126 -0.004639759818561491
0.014771520984846588 0.006557310883237328 -0.0019921490911491107
-0.0030376592001911955 -0.008515830229345572 -0.012801135231057572
-0.005230704570439613 -0.02625609747727305 -0.005541739464268741
0.024003418634225247 0.013868395854989814 0.005542117978082028
0.060270509304965594 -0.035472431177335596 -0.01383392311998635
0.026694574400567207 0.030145776830102212 -0.01346077682351149
0.05115311805066376 -0.023604857949188478 -0.0013519160502724554
0.027128484549988546 -0.0799749107170575 -0.03363141264644647
0.015001543996734827 -0.006303063680495325 -0.03905077638335392
0.03834764452277069 0.04639328514781942 -0.019939632495092285
0.040611242137641904 -0.10344272001222948 -0.03122507094898776
0.005200090738450221 0.06920468090998781 -0.014583542534645302
0.004994340163630481 -0.0036580823351322275 -0.008088851612264497
-0.0008058919089961202 -0.0039127460795388945 -0.019910634097939986
0.03570269425676782 0.11893906855512801 -0.012054958969860788
0.012581359576313947 0.008980277535289858 0.0275487162911643
0.015742659499103695 -0.0055997241163310485 0.01248042626609129
0.05820295826296236 0.011148194038918318 -0.04308195933781296
0.02572978193038213 -0.028798713402813918 0.011780660292347688
0.009236718523886996 -0.002614436772464627 0.0011246296748612956
0.0024226766107227184 0.0014950003567789898 -0.008128522486418335
0.01967877570186062 -0.011026065700306509 0.0019907894481452277
-0.011729386267379838 -0.051641512358447494 -0.0006126131224200363
0.02873994159079677 -0.0028701267267760666 -0.0018419862220972623
0.014564074905814895 -0.012527322363944172 0.011959566807406098
0.019869813389781533 -0.008406065052981544 0.008370557160487813
0.025230996446890544 0.011817648844923123 -0.0008558582673971963
0.038960402205215766 0.011855268462292656 -0.024995322066835603
0.018638333973852093 -0.0055168862119167085 0.021499048588278245
0.03670382781165231 -0.06074274449832039 -0.0030730875674609263
-0.00012741916864148325 -0.011220155724265374 -0.026364413825737794
0.018824730691378737 0.009028043037163274 -0.0015241772608297162
-0.004451635389669143 0.011433122351943773 -0.023569444244802753
0.02902202679526785 0.0064257744353609465 -0.0005914711059468202
-0.007349345307948506 -0.0727661846337571 -0.03207362194722335
0.004849271483885282 0.012646455663220348 -0.010988920607822066
0.015784733917077763 -0.019109490720743947 0.001965280028248892
0.010438919576038501 0.001846556653314647 -0.027170972808970902
0.035233918253089865 0.002953137148314054 0.014077811765349734
0.03192671224090186 0.0036569782986057044 0.004112196655739766
0.04087341685275355 0.013916199598470201 -0.011161827966237877
0.012608274902632196 0.005736409288191144 0.017325339195026924
-0.00135547933809733 0.018694065865932388 -0.018929680248400447
0.024082670238017616 0.017372774675351824 0.013637986241588454
0.04698623152193965 0.028715190431086047 -0.024039034344732858
0.013101037835843456 0.012924300048677633 0.030893571223169946
0.0130493970836357 0.00834385420917618 0.021988050410558554
0.011152931461608399 0.011432926469657512 0.04031791518733029
0.014417897366974382 -0.002754953620959382 -0.004231222259414412
0.013438892019494322 0.0016504191363907366 0.0039039878365049667
0.005985717214641408 0.00040907482096884677 -0.018091728623888994
0.026824862326065704 -0.023318154916200682 0.026494211028665678
0.02325733558963418 -0.014346673814636548 0.005448481878269131
0.024768042700513207 -0.012680254708090295 0.02076348748243151
0.020106146000856435 -0.014711349826394594 -0.02073598986304048
0.04579816896979065 -0.056422704274343954 0.0041840473658376655
0.030775933489298548 0.022233290754089367 0.025347988040949416
0.03157317261002316 0.06413126127413796 0.021963672547023565
-0.03006936368780164 -0.058895341208505946 0.014715551481488153
-0.02117831990332469 -0.002811010427353021 0.008500011879642036
-0.036246596997955745 -0.06627772904862979 0.009243187609972404
-0.008444196608182368 0.044748470584795905 0.018050584683587768
0.018816222738636687 -0.010298245772301482 -0.009912899812527697
0.023602845604784463 -0.014143196240826049 -0.015948476930374614
-0.026815452744218364 -0.00296482341991097 -0.009098135727402229
-0.0014000085798208314 -0.0017792839519322706 0.009467667085890733
-0.02153085863634152 -0.0007444500106413223 0.006751281321356156
-0.01078781516000685 -0.004947517425171104 0.005038934070738829
0.017808930033432244 0.021501851180332446 0.01353251571658165
-0.0296876467025535 0.01724737191090495 0.022262453258789196
0.010737201386699974 -0.043469842253152896 0.036502111617144575
0.03837660441950941 0.05173304714262457 -0.0022854705591453957
-0.00048154078626100474 0.08616114305890313 0.018473984449637434
0.012544462980761712 0.0035230555290218122 -0.00013083812520792805