# vtk DataFile Version 2.0
Really cool data
ASCII
DATASET UNSTRUCTURED_GRID
POINTS 584 double
-1.0 0.0 0.0
-0.9600374798207896 -0.027590413451835553 0.04
-0.9589620457797374 -0.028177574718636023 0.0
-0.9553815213922792 0.019675326217199102 0.04
0.6719637381218919 0.02110482676547816 0.0
0.6414775595248179 0.020020515529780993 0.04
0.6571281419012174 0.06 0.0
0.6240641012293764 0.022292119262118645 0.0
0.687851041884645 0.021313940245698455 0.04
0.7030120427199962 0.06 0.04
0.657128141901218 0.06 0.04
0.7030120427199952 0.06 0.0
0.6885310613992013 -0.0196061899732657 0.0
0.6720046167250797 -0.020579604775701428 0.04
0.6407079554435648 -0.019738458112036637 0.0
0.7171469290115033 0.021165332718839136 0.0
-0.7921016077200962 -0.06 0.04
-0.7604373514312079 -0.019298436119384588 0.0
-0.7479973317145423 -0.06 0.04
-0.7479973317145417 -0.06 0.0
0.7030120427199962 -0.06 0.0
0.7030120427199952 -0.06 0.04
0.6571281419012174 -0.06 0.04
0.7479973317145417 -0.06 0.04
0.7325903506195701 -0.020274227246539274 0.0
0.7176321617908783 -0.019839353713154383 0.04
0.7604373514312079 -0.019298436119384588 0.04
-0.8488906624897727 0.019856366527450334 0.04000000000000001
-0.8052789150181434 -0.019306901564895652 0.0
-0.805541091654972 0.020469431563422978 0.04000000000000001
-0.8203038938742353 -0.020636147377884773 0.04
0.897529295217204 0.022569895749215793 0.0
0.8488906624897727 0.019856366527450334 0.0
0.8569454102823642 0.029774901726562965 0.04
0.8777357995360431 0.06 0.0
0.9553815213922792 0.019675326217199102 0.0
0.95349853104827 0.02147987272312249 0.04
0.9103536180674616 -0.021283841161765512 0.0
-0.5450807564691462 -0.01715484187473429 0.04000000000000001
-0.5372746904547943 0.02439300391790418 0.04
-0.49049502097572617 0.000359712426279548 0.04000000000000001
-0.5409244119327052 -0.005150142234760652 0.0
-0.48901428549955095 -0.02776609156780287 0.019771763033692314
-0.4642419910175897 -0.06 0.04
-0.43891524330526177 8.673617379884035e-17 0.04000000000000001
0.7479973317145423 -0.06 0.0
0.9600486361512215 0.06 0.04
1.0 0.06 0.04
1.0 0.06 0.0
0.9192992165657531 0.06 0.0
0.7479973317145423 0.06 0.04
0.7309057796957548 0.02177174945441851 0.039999999999999994
0.7479973317145417 0.06 0.0
0.7613659684934695 0.020945326906433456 0.0
0.7736855084518748 0.020914979208800512 0.04
-0.8570647961856006 -0.015388027432140593 0.0
-0.8569454102823642 0.029774901726562965 0.0
-0.8649535140731797 -0.02016838668923704 0.039999999999999994
-0.1726925416005594 -1.214306433183765e-16 0.039999999999999994
-0.22806385632140147 1.0755285551056204e-16 0.039999999999999994
-0.2006519843784229 0.06 0.0
-0.22806385632140147 -1.1796119636642288e-16 0.0
0.438611990705585 -5.252150912499892e-05 0.04
0.41358849559293387 -0.06 0.04
0.4135884955929341 -0.06 0.0
0.4642419910175897 -0.06 0.0
0.4782715374234063 0.0302584611690398 0.019894876072988572
0.513903464641242 0.06 0.0
0.49049502097572617 0.000359712426279548 0.0
0.46424199101758934 0.06 0.0
0.46424199101758934 -0.06 0.04
-0.8164681441220105 0.022269284396602723 0.0
0.48912437490067595 -0.00041996788971368666 0.04
0.4642419910175897 0.06 0.04
-0.8353421249080566 0.06 0.04
0.8649535140731797 -0.02016838668923704 0.0
0.8973163514988121 0.02144006532192878 0.04
0.5625923446839085 0.06 0.04
0.6103276788742331 0.06 0.0
0.5943416245309461 0.018901239582525348 0.04
0.5790918012159274 0.021628695864523574 0.0
-0.593631917725493 -0.01946781888421301 0.04
-0.6103276788742336 -0.06 0.04
-0.6407079554435648 -0.019738458112036637 0.039999999999999994
-0.6264545933043166 -0.021459100211208025 0.0
-0.6103276788742331 -0.06 0.0
-0.6103276788742336 0.06 0.0
-0.6240641012293764 0.022292119262118645 0.04
-0.6414775595248179 0.020020515529780993 0.0
-0.5943416245309461 0.018901239582525348 0.0
-0.5790918012159274 0.021628695864523574 0.04000000000000001
-0.5625923446839077 0.06 0.04
-0.6103276788742331 0.06 0.04
-0.5625923446839085 0.06 0.0
-0.7325903506195701 -0.020274227246539274 0.039999999999999994
-0.7176321617908783 -0.019839353713154383 0.0
-0.7309057796957548 0.02177174945441851 0.0
-0.7736855084518748 0.020914979208800512 0.0
-0.7613659684934695 0.020945326906433456 0.04
-0.6571281419012174 0.06 0.04
-0.6719637381218919 0.02110482676547816 0.039999999999999994
-0.7030120427199952 0.06 0.04
-0.687851041884645 0.021313940245698455 0.0
-0.029521960903255984 -0.06 0.04
-0.05860957814939871 -6.938893903907228e-17 0.039999999999999994
-0.05860957814939863 5.898059818321144e-17 0.0
-0.08769719539554167 -0.06 0.0
-0.08769719539554144 -0.06 0.04
-0.2823507532564078 -5.204170427930421e-17 0.04
-0.25547572826437986 0.06 0.04
-0.25547572826438003 0.06 0.0
0.38751191920162714 6.938893903907228e-18 0.0
0.3352618020299945 -3.469446951953614e-18 0.0
0.36192316205531716 0.06 0.04
0.3619231620553172 0.06 0.0
-0.36192316205531716 0.06 0.0
-0.335244821032008 -1.1796296425746478e-06 0.0
-0.3352618020299945 -3.469446951953614e-18 0.039999999999999994
-0.38745316199969926 -7.894682722445895e-06 0.0
-0.3619231620553172 0.06 0.04
-0.3092257782484355 0.06 0.04
0.28235075325640757 5.551115123125783e-17 0.039999999999999994
0.30922577824843556 -0.06 0.0
0.335244821032008 -1.1796296425746478e-06 0.04
0.3092257782484355 -0.06 0.04
0.36192316205531716 -0.06 0.0
0.38745316199969926 -7.894682722445895e-06 0.04
0.3092257782484355 0.06 0.0
-0.38751191920162714 6.938893903907228e-18 0.04
-0.28235075325640757 5.551115123125783e-17 0.0
-0.30922577824843556 0.06 0.0
0.6103276788742336 -0.06 0.0
0.593631917725493 -0.01946781888421301 0.0
0.6264545933043166 -0.021459100211208025 0.04
0.4889627886584896 -0.027603176797077415 0.020155725176282127
0.583287522480325 -0.023728770665855194 0.039999999999999994
0.5450807564691462 -0.01715484187473429 0.0
0.5409244119327052 -0.005150142234760652 0.04
-0.48912437490067595 -0.00041996788971368666 0.0
0.3619231620553172 -0.06 0.04
-0.657128141901218 0.06 0.0
0.9600374798207896 -0.027590413451835553 0.0
1.0 0.0 0.04
0.9589620457797374 -0.028177574718636023 0.04
0.5625923446839077 -0.06 0.04
0.5625923446839085 -0.06 0.0
0.7766984080639845 -0.02052537972713625 0.0
-0.438611990705585 -5.252150912499892e-05 0.0
-0.583287522480325 -0.023728770665855194 0.0
-0.9600486361512215 0.06 0.0
-0.95349853104827 0.02147987272312249 0.0
-0.9192992165657539 0.06 0.0
-0.9192992165657531 0.06 0.04
-1.0 0.06 0.0
-0.14473309882269625 -0.06 0.04
-0.14473309882269605 -0.06 0.0
-0.11621514710911887 -1.214306433183765e-16 0.0
-0.17269254160055947 1.1796119636642288e-16 0.0
-0.14473309882269625 0.06 0.0
-0.11621514710911884 1.214306433183765e-16 0.039999999999999994
-0.8353421249080566 -0.06 0.0
-0.8353421249080575 -0.06 0.04
-0.8973163514988121 0.02144006532192878 0.0
-0.897529295217204 0.022569895749215793 0.04
0.11621514710911887 -1.214306433183765e-16 0.039999999999999994
0.05860957814939871 -6.938893903907228e-17 0.0
0.05860957814939863 5.898059818321144e-17 0.039999999999999994
0.08769719539554144 0.06 0.04
0.6103276788742336 0.06 0.04
0.5139034646412424 -0.06 0.0
0.9096368506350345 -0.020963842829632554 0.04
0.805541091654972 0.020469431563422978 0.0
0.8052789150181434 -0.019306901564895652 0.04
0.8203038938742353 -0.020636147377884773 0.0
0.08769719539554144 -0.06 0.0
0.08769719539554167 -0.06 0.04
0.9192992165657531 -0.06 0.04
0.8164681441220105 0.022269284396602723 0.039999999999999994
-0.9103536180674616 -0.021283841161765512 0.04000000000000001
-0.8777357995360431 -0.06 0.0
-0.9096368506350345 -0.020963842829632554 0.0
0.8570647961856006 -0.015388027432140593 0.04
0.7921016077200956 -0.06 0.04
0.8353421249080566 -0.06 0.04
0.7921016077200962 -0.06 0.0
0.4135884955929341 0.06 0.04
0.43891524330526177 8.673617379884035e-17 0.0
-0.7921016077200956 -0.06 0.0
-0.08769719539554144 0.06 0.0
0.14473309882269605 0.06 0.0
0.1726925416005594 -1.214306433183765e-16 0.0
0.11621514710911884 1.214306433183765e-16 0.0
-0.029521960903255984 0.06 0.0
0.0 0.0 0.0
0.17269254160055947 1.1796119636642288e-16 0.04
0.14473309882269625 0.06 0.04
0.0 0.0 0.04
0.2006519843784229 0.06 0.04
0.22806385632140147 -1.1796119636642288e-16 0.04
0.22806385632140147 1.0755285551056204e-16 0.0
-0.6720046167250797 -0.020579604775701428 0.0
-0.7030120427199962 -0.06 0.04
-0.7030120427199952 -0.06 0.0
0.25547572826438003 0.06 0.04
0.30922577824843556 0.06 0.04
0.25547572826437986 0.06 0.0
-0.02952196090325599 0.06 0.04
0.2006519843784232 -0.06 0.04
0.14473309882269605 -0.06 0.04
0.2006519843784229 -0.06 0.0
0.14473309882269625 -0.06 0.0
0.2823507532564078 -5.204170427930421e-17 0.0
-0.36192316205531716 -0.06 0.04
-0.41358849559293387 -0.06 0.0
0.5372746904547943 0.02439300391790418 0.0
0.5139034646412424 0.06 0.04
-0.5139034646412424 -0.06 0.04
0.41358849559293387 0.06 0.0
-0.7171469290115033 0.021165332718839136 0.04
-0.7479973317145417 0.06 0.04
-0.7030120427199962 0.06 0.0
0.08769719539554167 0.06 0.0
0.029521960903255984 -0.06 0.0
-0.02952196090325599 -0.06 0.0
0.02952196090325599 -0.06 0.04
0.02952196090325599 0.06 0.0
0.029521960903255984 0.06 0.04
-0.47805793986482265 0.03008719549728311 0.01940109733029794
-0.4642419910175897 0.06 0.0
0.6103276788742331 -0.06 0.04
1.0 -0.06 0.04
0.9600486361512205 -0.06 0.04
0.9600486361512215 -0.06 0.0
-0.3092257782484355 -0.06 0.0
0.877735799536044 -0.06 0.0
0.8777357995360431 -0.06 0.04
-0.41358849559293387 0.06 0.04
-0.4135884955929341 0.06 0.0
1.0 -0.06 0.0
1.0 0.0 0.0
-0.14473309882269605 0.06 0.04
-1.0 -0.06 0.0
-0.9600486361512215 -0.06 0.04
-1.0 -0.06 0.04
-0.7921016077200962 0.06 0.0
-0.9192992165657531 -0.06 0.0
-0.9600486361512205 -0.06 0.0
-0.7921016077200956 0.06 0.04
-0.7766984080639845 -0.02052537972713625 0.04
-0.5625923446839085 -0.06 0.04
-0.5625923446839077 -0.06 0.0
-0.877735799536044 -0.06 0.04
0.7921016077200962 0.06 0.04
-0.3619231620553172 -0.06 0.0
-0.7479973317145423 0.06 0.0
-0.8777357995360431 0.06 0.04
-0.4135884955929341 -0.06 0.04
-0.46424199101758934 -0.06 0.0
0.513903464641242 -0.06 0.04
-1.0 0.0 0.04
-0.877735799536044 0.06 0.0
-0.30922577824843556 -0.06 0.04
[...]
POINT_DATA 584
VECTORS displacement double
0.009918681415931758 -0.00404231626411833 -0.004262898314047989
0.012867688634703112 -0.014837669060423643 -0.014282024114372797
0.008533173437938102 -0.0025449613978971953 -0.012175357684940631
0.027495238811273037 -0.0015749633524360194 -0.004098518626344047
0.0029476272214246473 -0.020621359739025263 -0.005529760038987237
0.00486268011671036 -0.01885031190958539 -0.007232819072975074
0.009728402536211149 -0.017888010063341384 -0.00883965574659605
0.004719036815649157 -0.010056068869863558 -0.010043902558234367
-0.002376039642179786 -0.01798049329877619 -0.002681377776619016
0.016377182964743754 -0.0361102806738244 -0.009856050748759457
0.007824337043092442 -0.012825492939057019 -0.010169922950139142
0.01457805270228587 -0.03462205716483913 -0.010807213045405526
0.005339596783187157 -0.01758954923197446 -0.0030836922712141395
0.0033841351010801195 -0.02824151692247743 -0.00522097614558453
0.007856644368522028 -0.012990682499686858 -0.01130541451547807
0.005912312044197604 -0.01942921675550638 -0.007549850376381936
-0.046382574708739945 -0.014835943993329232 -8.42334004555497e-05
-0.0005957905405472115 -0.002513719083577894 0.004087590979659476
-0.040295180856953564 0.015135693236590817 0.00544584417716613
-0.044281250288711854 0.006920727030408548 0.006695418742614961
-0.014805624772762515 0.0027772073185711394 0.007518215932626695
-0.017847818386542758 0.008790467728551483 0.00942722817633894
-0.022138678715197885 -0.03663484039851988 -0.013872975305769945
-0.030893691021529647 0.0015518379221292115 0.019364543097698483
0.015693599527488805 0.002139622300637469 0.005915939224562974
0.009120960750250996 0.02202600739096072 0.005575516922731026
0.018710434775763306 0.003443756874547548 0.006605998479227377
0.017605274525105904 0.01585682126675863 0.0009394859570456752
0.0063241516308128005 -0.0044133916238468405 -0.0005438467163906753
0.018823003268790196 -0.020016515812384537 0.006958490814174742
0.005812408353240853 0.0038240113750140055 0.0014254426794187939
-0.0006222082927007187 -0.00294101454023315 0.010583277794518524
0.0009939250340434563 -0.046051677826178916 0.009014412094790808
0.003758058877489563 -0.05052115629586404 0.0015550432881206724
-0.016766103612650282 -0.02125256679979338 0.00731110485415745
-0.006236614162559811 0.022581346901206906 -0.004786217181429905
0.0022262218329967237 0.008347157559610527 -0.003571979958750067
-0.012424646059046555 0.005673760600449052 0.014327691396374395
0.0019388619094842 -0.022870868039028366 0.012257549783146929
0.015253204056388883 -0.020149621033711224 0.0002870621386717532
0.009731478831912858 -0.0026488823890295776 0.007788306271988817
0.009111377924904976 -0.032941494179391684 0.008369433880681237
-0.002991457986932059 -0.007141936179677692 0.012503124030108287
-0.0215959735142134 -0.0018572135778531344 0.015325293748759123
0.007685538277382235 0.005359432345693174 0.009024917721110408
-0.021261735835261274 -0.005381151274795231 0.019024442154252755
0.002935214517245645 -0.0032992521004480938 0.01019361988528923
0.016576738586468562 0.05952912720837447 0.011196735564627669
4.5600639269676824e-05 0.07602870445681757 0.006625635663413203
-0.01313085969997756 0.013918499387395259 0.011418630547506138
0.017163405526109236 0.008072619865876112 -0.015398810888857329
0.009679110553326268 -0.011032837921467779 0.00027803252410765696
0.015511115700733753 -0.0011531690113402296 -0.010685853404461711
0.00407067088979277 0.004897593666903937 -0.0030040589706146047
-0.0009863528587058144 0.02900009820285359 0.001831461897180844
0.010978816771885322 0.013648389663915704 -0.005781095852606992
0.0192783617260063 0.021223299193633253 0.001031373941423486
0.011643002493140268 0.004332123271417672 -0.005799351149188431
0.007017690601488397 0.007139378835536246 -0.00918914345602717
0.005126556469320093 0.011502881485319142 -0.005442762860853441
0.01879128459290312 0.021090911900065682 0.01076785387608606
0.004662222089735472 0.02607298669846859 -0.006791326289849229
0.005210755783777432 -0.009902569528899351 -0.0044849139796523324
-0.024557630064562862 -0.03463146484973029 -0.022135290137079003
-0.031443312806133134 -0.016624010971527336 -0.019661354151879997
-0.03005791830989261 0.01767306197717192 -0.028524680514896907
0.013477354454753744 -0.0016961732901097297 0.0023233469279366793
0.006642219785491282 0.05096520644369395 0.011606444922083351
0.008629487513859226 0.013403477858588113 -0.00959933037653474
0.01666568832932378 0.0005476164035920107 0.014207341896132914
-0.027534464760697104 0.00908892167591015 -0.02537703487833152
0.019401933340362755 -0.0002161731613067302 0.00562832123100625
0.011075170975302749 -0.0038062172860398816 -0.009928984547114371
0.015708802260999258 -0.019495580641886872 0.016207128836401664
-0.0022009281659734845 0.004305109366935358 0.009343522980270202
0.008441588350426047 -0.04822867814227177 0.023173835402209877
0.0018331633081136627 -0.0017732579518026268 0.0018025466260051279
0.018897237470779 0.025601676449052174 0.0071825886393458915
0.011899480267205307 -0.0022447828125671376 0.001536512928957293
0.005126039490469973 -0.008495323865494238 -0.007599534929811736
0.006216121631031427 0.02200968850733144 -0.008780509975186885
0.00070211287735548 -0.008509752510962844 0.008641897364425504
-0.034773790867067014 -0.0036122663757133856 0.011914636518463854
0.012149373938292948 -0.00030612591122874527 0.009076132202877894
0.009454898258727175 -0.009720894202375619 0.007312228128938902
-0.025671702192915088 -0.013429918350851422 0.016040954056074242
0.008895687094018142 -0.004623390162341689 -0.022850967097451887
0.01962882494859448 0.023862572469134865 -0.00016218471028157773
0.022989475971145288 -0.021870625119134388 -0.010861579506128705
0.014091144147898452 -0.00949113762953301 -0.0015211274313255228
0.014176820266389053 -0.003061483038023328 -0.0010417406115206806
0.014830313461608438 -0.024512804665005303 -0.012828844554156102
0.00652676658350049 0.007973137365048929 -0.01876090419588169
0.01755047434251925 -0.03282587781732377 -0.016212551082694107
-0.0005019434118586668 0.009500727216853152 0.007918819050175104
-0.00021317451292472646 0.0019892714633933705 0.001710613674292551
0.0009554163290363352 0.000550741235767984 0.004578487702647706
0.016692487832549955 0.002561501532997616 0.011512921025814337
0.012112662400639546 0.0038491842178397695 0.007028072089174376
-0.031514096200596406 -0.08356916197394064 -0.01984487738621047
0.0016987775768211402 -0.0287129376973166 -0.0014538758200860276
-0.04402858832060958 0.03615493898816824 -0.008314047614045179
-0.006960083733158642 -0.01973060059491987 -0.00461563813323362
-0.02110370889561226 0.004266799791196803 -0.006006798268604276
0.005969290484356085 0.0009956424906102193 -0.009132409607777288
0.00551510953939175 0.002443260157755457 -0.009582269731339733
-0.023620028863264603 0.00543456065464059 -0.01395598370320033
-0.02555910805171238 0.0015761542093932354 -0.016642172356048143
0.006810064889264453 0.00978977108570586 -0.001523399212808456
0.01914138780769478 0.014528705461970885 0.015017015466329827
0.019100990545763332 0.02694619584483035 0.01494442211169597
0.004674463495143858 0.005453110520687842 0.0036796532907174746
0.009915517202327266 0.05824257625239061 0.006797121940918518
0.025825780729434027 0.03998814247013302 0.01486467805340195
0.02622039274507848 0.043018979023204666 0.012111010398991042
0.021047400820610677 0.004989829381583581 0.014010984771056261
0.006176840194910729 0.0011046477320157946 0.001932766582739244
0.006469061320068219 -0.008129495995126688 0.0030155004343078327
0.008579885885325985 0.007986578656159758 0.007492749691848014
0.020727132198443056 -0.00018198247646261624 0.013476283638647467
0.016805820431559097 -0.002757211776801827 0.016081947951428158
0.008445192970549844 -0.04190834378289723 0.009429591270041724
-0.012258900517129157 0.006119723085585577 0.0074669805652923665
0.00840242891942607 0.05948857449167651 0.007208867247978151
-0.008249102847577742 0.0013926391718422253 0.0031019052692262635
-0.03531198203437261 0.03607191684054547 -0.0013383463977701148
0.008944270699026868 -0.004931015687761697 0.0008944234436978115
0.006848665199854261 0.0020235548502097927 0.0053280651809575535
0.008278785360051331 0.004724517283226409 0.007267717428209717
0.006073471026926947 0.0213260812755625 -0.0018536720773109536
0.01733931329122932 0.008435366561296353 0.016553869292100412
-0.018025013052345978 0.007185827253158649 -0.024551436335573867
0.0006304261539436203 0.009112548902660866 -0.019596986240373558
0.0052914791514446155 -0.0030206120307388036 -0.014656485020781202
-0.001945004796090548 0.006070246059260304 -0.019360230239288064
0.00026762253452601326 0.0037828235632621984 -0.019840963997685375
-0.004484996370387365 0.05923573950231914 -0.015780944886568473
0.004033762763708318 0.05320220478834432 -0.01694292542033399
0.009704570832487887 -0.00994240022492833 0.007761977183532095
-0.031399368796772444 0.030870000184258298 -0.002172419273345148
-0.02565617586991662 -0.06807455764979375 -0.011787558850088371
-0.032283351343584676 0.024772717844274754 -0.016622485623589277
-0.011880683335188215 0.06270175993026522 -0.0294225908998055
-0.015187615748204757 0.00880947879798174 -0.012136699809954712
-0.029523564744888264 0.03327837936706469 -0.03500014778506057
-0.030301889220199385 0.0491969839783098 -0.03244083305403957
0.014214223030652316 -0.0200325117921842 0.01916055369161975
0.008086180281991083 0.0021252282229969515 0.007764445172987187
0.000707225573800721 -0.017616812598700637 0.009198681342230635
-0.02483309435532248 0.016780143468854106 -0.0002320143075039404
0.021863324009806905 0.002044493900822865 -0.0068525491534252095
-0.018145949063048304 -0.008814280452857277 0.005215445145606014
-0.0348418852643738 -0.022695984622857383 -0.006652391495181871
-0.010626984394467716 -0.057719211636218466 -0.0019455770396236772
-0.02723692005481811 -0.006871937288913049 -0.02409187436642717
-0.025827882446823786 0.004147323223913361 -0.024205990743583795
0.004356052732742494 0.005865615110710726 -0.009579953210689607
0.00723538289188506 0.01801085922046961 -0.008769181976529001
0.018126828096139844 0.014966879823963046 0.004323231340882301
0.0037354459225903197 -0.0008539307770885885 -0.010599331137117633
-0.05165174897690085 0.017260002827367348 -0.005560595891298778
-0.052881599851388704 0.016592115738220295 -0.007469240023208062
0.02722992238652913 0.00899194924526357 -0.005771009820506755
0.030959979734464023 -0.00030886019172217887 -0.004787112907016869
0.0058883510328948205 -0.015903128725278735 0.005411022617472402
0.00827716862365686 -0.025108936643903 -0.0006796497306131641
0.006541960197583068 -0.01533032435130319 -0.0007270937726877413
0.015538891091946234 -0.022194834659695142 -0.014616926517961499
0.013133148347873134 -0.011085603471856066 -0.0018821534142938942
-0.01932903085197002 0.028556790199054893 -0.03670012661520307
-0.01297058829340009 0.021015387960534912 0.00442356774381233
0.00918471323184698 -0.00998915300120941 0.005028949212221235
-0.01373499595100304 0.010393786834154997 0.016630026521432865
-0.011943959732038052 -0.014337532539750347 0.027303434340301636
-0.0215772950049442 -0.0341931211261002 0.020071347201081245
-0.021521755139392588 -0.024025075203406982 0.01933918578676807
-0.089242119855922 -0.0272236330498222 0.015643718886638555
0.01517146109926218 -0.009111500282989075 0.0054998702989994585
0.01794557977678358 0.0043783137594145625 -0.012732656244653228
-0.055230501217604255 -0.0007399030867185689 -0.010266221892853172
0.016128652242739447 0.009653831648244465 -0.012269334587747758
0.011500491555705629 -0.021839797031144737 0.021842117472250042
-0.04342499505983365 -0.06596873689981064 0.03241201410337397
-0.05707040607373185 0.024551366421585504 0.05581138553803096
-0.040588053040261585 -0.059623346380737026 0.02657885923858083
0.01445749359080611 -0.02005403666192235 0.015949686484578358
0.004662744979437795 0.00244463985941886 -0.002981866267372509
-0.04872596295891284 -0.011179484303371413 -0.0009181549504606955
0.015872805579038668 0.00333189897504263 -0.0029025967334671728
0.013550300714663443 -0.011566311351839307 -0.012438449123745143
0.00712837270024591 0.005647824380923554 0.00949744986263863
0.0073292898026722855 -0.02861488763719029 0.004980605140265634
0.013653646059772649 0.004933457401867901 -0.010812318453644887
0.005934276231510828 0.005159724750702236 -0.005420417451852359
0.0061805367897866765 0.01992785906082889 0.009855612605658157
0.009773758211316878 0.002527780176273811 -0.011338733969742259
0.005257274095261728 0.011184939766648366 -0.006786741363029691
0.011952975169194444 0.013522293554530293 -0.00545549290841391
0.0036444122447074445 -0.00646181239942019 0.011658362987384227
0.004159135029693027 -0.018760515343320718 0.010764243746267286
0.006928349848634643 0.0023439945631055247 -0.0005066101765077661
-0.035925852546939925 0.015143661969656691 0.007466710138257753
-0.03924818735370075 0.007593256802395954 0.007456952172056765
0.014388796427889346 -0.05127619012508408 -0.0012189360809236867
0.006173183793696518 -0.004780292331717322 0.0106299624530265
0.0213616526110774 -0.05239994428449637 0.0028571988609217788
0.014370777128914635 0.006135149059805023 -0.010304564011065205
-0.021861110867463222 0.006440400288212498 0.027252222450621408
-0.016481699804817996 0.004830027681057477 0.02683389304981108
-0.026203254686828256 -0.004798152468185304 0.030106293870154725
-0.017344510083180092 -0.009530610463453784 0.02711166948094187
0.008384629528369162 -0.04360456299533022 0.007951612177869402
-0.028155929928279123 -0.005584041904539732 -0.003276820715014219
-0.02460943317170433 0.0087819429505221 0.005800264294228292
0.005452605349447418 0.06233331415423269 -0.007158645005247013
0.006949718961770298 0.032919490148440575 0.00957980835439309
-0.01684463667513649 -0.007477004169939383 0.02156706171229332
0.015280890138927427 -0.0096777102914324 0.014037008670599262
0.004418364728718274 -0.026342506068105162 0.000281093647339168
-0.005003049512351381 0.03877998171618174 0.007930878859792987
-0.034225082699124165 0.01066217728836565 -0.002758095991315413
0.018901354347731613 -0.03296988122612132 -0.01591648119109205
-0.02440240233387979 -0.005324500800302636 0.006488829512199878
-0.020617611608916973 0.002655469198290845 -0.004991272749749357
-0.025662997795367105 0.001138006946883797 0.00629024527208811
0.020253218901013385 -0.010127760978647447 -0.014569534726981394
0.019102678246259903 -0.0023072797207992772 -0.014883375641350432
0.01335944583430809 -0.002670609755309549 0.0023520635370844777
0.018373221239306167 -0.0028837100526583133 0.00051302061491276
-0.015011548696332012 -0.003348692862679255 -0.026245626162046447
-0.055822622362106764 -0.005992160673340478 -0.07164884540126663
-0.07329612655420849 0.053205303994441955 -0.01334662588281009
-0.09623753863545688 0.03677664707817325 -0.01870059077118541
-0.026154544986399332 0.01061494854827998 -0.015411699830492752
-0.07011286993836327 -0.07838323557386068 0.022794443832770222
-0.05563795107970818 -0.09456846100494991 0.022235599745011197
0.01872657842967309 0.0037042130183229196 0.007860844964205048
0.019596878682431408 0.004413159920458133 0.009436912443397664
-0.08062547937552592 0.020717104516388883 -0.054846568238774186
-0.014853447730430572 0.07439090887130839 -0.02180122825398803
0.018404690676125997 0.00533842414181421 0.004885209359865269
-0.033690133094234416 0.06937471465794465 -0.008060483554951363
-0.05805162135053621 -0.060646272836579675 -0.033698861093738264
-0.04595964159770912 0.09448836036613613 -0.015651911061329342
-0.00640688059742788 -0.0026881122796889347 0.020112142158841037
-0.06184319729767423 0.021252688590487553 -0.018216725934221224
-0.048576325664519124 -0.016369611862931205 -0.013940600545326306
-0.0025193994634350346 -0.005198085280869133 0.015821608630413125
0.0024895172528991796 -0.015028116966683913 0.005919832003936325
-0.02913369309760466 -0.0013781233597749125 0.026218305197096545
-0.02412607049725981 -0.017525327010311197 0.020219590680839446
-0.05435788946700619 -0.01166525766230764 -0.0111798151819186
0.03775886649370875 -0.023272200140532218 -0.006948531326967309
-0.02837047688649914 0.0011321737590661296 -0.004169505438565505
-0.014355185068957763 0.02763988225562897 0.006890854950442089
-0.016120531430109657 0.019340666348130735 -0.00034793793639533924
-0.02395113868669186 0.00916131642785093 0.009295029571747547
-0.020695710648549418 -0.005486264693011202 0.015468653229712335
-0.017106604517158158 0.004298544119667317 -0.036903623968357106
0.025252332054256837 -0.02465452362573792 0.02642544403821305
-0.014508710807455503 0.022014540324798642 0.004270763349486051
-0.025209653368509995 0.0010095878912269685 -0.013967780868680243
-0.027232132234206344 0.010475607411188446 -0.023628376257661798
0.015849215889685825 -0.002012559991271424 -0.0029069442707358333
-0.031020566814202778 -0.03668971864562463 0.014398741614094417
-0.02841222766575093 0.023769587428555485 -0.023280519862887233
-0.022263733536792785 0.057836260017164576 -0.013121408522239038
-0.07541261972573153 0.027052046634397264 -0.02258546307285089
0.014419630541271005 -0.022467637394248046 -0.00807332089604847
0.007865454530490106 0.01407249883117284 0.00992029399569276
-0.008358791247634438 0.020424976076612547 0.012692479860871315
0.008057371316907733 -0.06726275981427146 -0.006316700332439567
0.01424309955384664 -0.010802189802997263 -0.006699196636059598
0.016552160783310104 0.002575191219704887 -0.000621589157563486
-0.0361547583990624 0.004976462374291152 0.006434636060451175
-0.0172223759223152 -0.003190668697190352 -0.0024221723519475707
-0.013734676800778032 0.013638939262988157 -0.002266486342995722
-0.023556906432822263 -0.032830744136752424 0.018337504848419384
-0.054765373043222314 0.006781901620965776 0.042035442877492925
-0.01588745180603739 -0.020650185445558224 0.019956355378224908
0.018798862370030218 0.007640431622243512 0.01156772020236332
-0.0045940966088154666 0.013356782103229391 0.011659775791540984
0.02735069739570267 0.002507748753200557 0.013777079652246399
0.0338913632278108 0.03292394021589141 -0.007871708892986228
0.033146054912920636 -0.020848999865234547 -0.0015678754431828672
-0.0915480003085156 -0.001381620290616584 -0.001239771463936023
0.018697304937085667 0.04170513334709087 0.006396692679904249
-0.037176083920935334 0.012487719496468881 0.008703498568287846
-0.019987747458717096 -0.026874159162771968 -0.011786629741541954
-0.027086503698471022 0.01559242400116218 -0.027008798319869538
-0.025439021599495872 0.02718743230518253 -0.025567289567797205
0.019639127620112235 0.0010853047088548976 -0.009614766072651054
-0.05123929306002973 -0.010133713170105562 -0.01187193196297067
0.021005023513788357 -0.06363540834809184 -0.001988813171618952
-0.03475328284542761 -0.0821846353957661 -0.017615831000928422
-0.006433117933642828 -0.0021052730139923814 0.002667723918463275
0.005763329829395634 -0.003349929052187071 0.005279932590209787
0.014251953560368862 -0.024065633362124125 0.0057689545698027325
0.012098577001400232 0.01713039657911275 0.004503305257616327
-0.029061517955309025 -0.003848496644623507 -0.02269771105801699
-0.029670096103833914 0.0006954452087213954 -0.027986285536245492
0.004511310563992543 -0.002319498887878177 -0.006317044483200205
0.012786521176607269 0.003612858773127782 -0.006558736699228413
-0.007689018292190308 0.02386888739680516 0.010396797677909393
0.010426242046600313 0.026811451734757612 -0.009121693557293167
0.015302349996874015 0.0028203070746149646 -0.010397018460630942
0.04054823649072041 0.06299024499030538 -0.004412327790367648
0.0657461294538798 -0.03541849818493781 -0.01897175671091032
-0.052586807017650235 0.008150064002932243 -0.010430730924104702
-0.004132763470840193 -0.014268313924414555 0.0010917258742228686
-0.029721045742689738 0.011909489986040741 0.008534778829833577