# vtk DataFile Version 2.0
Really cool data
ASCII
DATASET UNSTRUCTURED_GRID
POINTS 584 double
-1.0 0.0 0.0
-0.9600374798207896 -0.027590413451835553 0.04
-0.9589620457797374 -0.028177574718636023 0.0
-0.9553815213922792 0.019675326217199102 0.04
0.6719637381218919 0.02110482676547816 0.0
0.6414775595248179 0.020020515529780993 0.04
0.6571281419012174 0.06 0.0
0.6240641012293764 0.022292119262118645 0.0
0.687851041884645 0.021313940245698455 0.04
0.7030120427199962 0.06 0.04
0.657128141901218 0.06 0.04
0.7030120427199952 0.06 0.0
0.6885310613992013 -0.0196061899732657 0.0
0.6720046167250797 -0.020579604775701428 0.04
0.6407079554435648 -0.019738458112036637 0.0
0.7171469290115033 0.021165332718839136 0.0
-0.7921016077200962 -0.06 0.04
-0.7604373514312079 -0.019298436119384588 0.0
-0.7479973317145423 -0.06 0.04
-0.7479973317145417 -0.06 0.0
0.7030120427199962 -0.06 0.0
0.7030120427199952 -0.06 0.04
0.6571281419012174 -0.06 0.04
0.7479973317145417 -0.06 0.04
0.7325903506195701 -0.020274227246539274 0.0
0.7176321617908783 -0.019839353713154383 0.04
0.7604373514312079 -0.019298436119384588 0.04
-0.8488906624897727 0.019856366527450334 0.04000000000000001
-0.8052789150181434 -0.019306901564895652 0.0
-0.805541091654972 0.020469431563422978 0.04000000000000001
-0.8203038938742353 -0.020636147377884773 0.04
0.897529295217204 0.022569895749215793 0.0
0.8488906624897727 0.019856366527450334 0.0
0.8569454102823642 0.029774901726562965 0.04
0.8777357995360431 0.06 0.0
0.9553815213922792 0.019675326217199102 0.0
0.95349853104827 0.02147987272312249 0.04
0.9103536180674616 -0.021283841161765512 0.0
-0.5450807564691462 -0.01715484187473429 0.04000000000000001
-0.5372746904547943 0.02439300391790418 0.04
-0.49049502097572617 0.000359712426279548 0.04000000000000001
-0.5409244119327052 -0.005150142234760652 0.0
-0.48901428549955095 -0.02776609156780287 0.019771763033692314
-0.4642419910175897 -0.06 0.04
-0.43891524330526177 8.673617379884035e-17 0.04000000000000001
0.7479973317145423 -0.06 0.0
0.9600486361512215 0.06 0.04
1.0 0.06 0.04
1.0 0.06 0.0
0.9192992165657531 0.06 0.0
0.7479973317145423 0.06 0.04
0.7309057796957548 0.02177174945441851 0.039999999999999994
0.7479973317145417 0.06 0.0
0.7613659684934695 0.020945326906433456 0.0
0.7736855084518748 0.020914979208800512 0.04
-0.8570647961856006 -0.015388027432140593 0.0
-0.8569454102823642 0.029774901726562965 0.0
-0.8649535140731797 -0.02016838668923704 0.039999999999999994
-0.1726925416005594 -1.214306433183765e-16 0.039999999999999994
-0.22806385632140147 1.0755285551056204e-16 0.039999999999999994
-0.2006519843784229 0.06 0.0
-0.22806385632140147 -1.1796119636642288e-16 0.0
0.438611990705585 -5.252150912499892e-05 0.04
0.41358849559293387 -0.06 0.04
0.4135884955929341 -0.06 0.0
0.4642419910175897 -0.06 0.0
0.4782715374234063 0.0302584611690398 0.019894876072988572
0.513903464641242 0.06 0.0
0.49049502097572617 0.000359712426279548 0.0
0.46424199101758934 0.06 0.0
0.46424199101758934 -0.06 0.04
-0.8164681441220105 0.022269284396602723 0.0
0.48912437490067595 -0.00041996788971368666 0.04
0.4642419910175897 0.06 0.04
-0.8353421249080566 0.06 0.04
0.8649535140731797 -0.02016838668923704 0.0
0.8973163514988121 0.02144006532192878 0.04
0.5625923446839085 0.06 0.04
0.6103276788742331 0.06 0.0
0.5943416245309461 0.018901239582525348 0.04
0.5790918012159274 0.021628695864523574 0.0
-0.593631917725493 -0.01946781888421301 0.04
-0.6103276788742336 -0.06 0.04
-0.6407079554435648 -0.019738458112036637 0.039999999999999994
-0.6264545933043166 -0.021459100211208025 0.0
-0.6103276788742331 -0.06 0.0
-0.6103276788742336 0.06 0.0
-0.6240641012293764 0.022292119262118645 0.04
-0.6414775595248179 0.020020515529780993 0.0
-0.5943416245309461 0.018901239582525348 0.0
-0.5790918012159274 0.021628695864523574 0.04000000000000001
-0.5625923446839077 0.06 0.04
-0.6103276788742331 0.06 0.04
-0.5625923446839085 0.06 0.0
-0.7325903506195701 -0.020274227246539274 0.039999999999999994
-0.7176321617908783 -0.019839353713154383 0.0
-0.7309057796957548 0.02177174945441851 0.0
-0.7736855084518748 0.020914979208800512 0.0
-0.7613659684934695 0.020945326906433456 0.04
-0.6571281419012174 0.06 0.04
-0.6719637381218919 0.02110482676547816 0.039999999999999994
-0.7030120427199952 0.06 0.04
-0.687851041884645 0.021313940245698455 0.0
-0.029521960903255984 -0.06 0.04
-0.05860957814939871 -6.938893903907228e-17 0.039999999999999994
-0.05860957814939863 5.898059818321144e-17 0.0
-0.08769719539554167 -0.06 0.0
-0.08769719539554144 -0.06 0.04
-0.2823507532564078 -5.204170427930421e-17 0.04
-0.25547572826437986 0.06 0.04
-0.25547572826438003 0.06 0.0
0.38751191920162714 6.938893903907228e-18 0.0
0.3352618020299945 -3.469446951953614e-18 0.0
0.36192316205531716 0.06 0.04
0.3619231620553172 0.06 0.0
-0.36192316205531716 0.06 0.0
-0.335244821032008 -1.1796296425746478e-06 0.0
-0.3352618020299945 -3.469446951953614e-18 0.039999999999999994
-0.38745316199969926 -7.894682722445895e-06 0.0
-0.3619231620553172 0.06 0.04
-0.3092257782484355 0.06 0.04
0.28235075325640757 5.551115123125783e-17 0.039999999999999994
0.30922577824843556 -0.06 0.0
0.335244821032008 -1.1796296425746478e-06 0.04
0.3092257782484355 -0.06 0.04
0.36192316205531716 -0.06 0.0
0.38745316199969926 -7.894682722445895e-06 0.04
0.3092257782484355 0.06 0.0
-0.38751191920162714 6.938893903907228e-18 0.04
-0.28235075325640757 5.551115123125783e-17 0.0
-0.30922577824843556 0.06 0.0
0.6103276788742336 -0.06 0.0
0.593631917725493 -0.01946781888421301 0.0
0.6264545933043166 -0.021459100211208025 0.04
0.4889627886584896 -0.027603176797077415 0.020155725176282127
0.583287522480325 -0.023728770665855194 0.039999999999999994
0.5450807564691462 -0.01715484187473429 0.0
0.5409244119327052 -0.005150142234760652 0.04
-0.48912437490067595 -0.00041996788971368666 0.0
0.3619231620553172 -0.06 0.04
-0.657128141901218 0.06 0.0
0.9600374798207896 -0.027590413451835553 0.0
1.0 0.0 0.04
0.9589620457797374 -0.028177574718636023 0.04
0.5625923446839077 -0.06 0.04
0.5625923446839085 -0.06 0.0
0.7766984080639845 -0.02052537972713625 0.0
-0.438611990705585 -5.252150912499892e-05 0.0
-0.583287522480325 -0.023728770665855194 0.0
-0.9600486361512215 0.06 0.0
-0.95349853104827 0.02147987272312249 0.0
-0.9192992165657539 0.06 0.0
-0.9192992165657531 0.06 0.04
-1.0 0.06 0.0
-0.14473309882269625 -0.06 0.04
-0.14473309882269605 -0.06 0.0
-0.11621514710911887 -1.214306433183765e-16 0.0
-0.17269254160055947 1.1796119636642288e-16 0.0
-0.14473309882269625 0.06 0.0
-0.11621514710911884 1.214306433183765e-16 0.039999999999999994
-0.8353421249080566 -0.06 0.0
-0.8353421249080575 -0.06 0.04
-0.8973163514988121 0.02144006532192878 0.0
-0.897529295217204 0.022569895749215793 0.04
0.11621514710911887 -1.214306433183765e-16 0.039999999999999994
0.05860957814939871 -6.938893903907228e-17 0.0
0.05860957814939863 5.898059818321144e-17 0.039999999999999994
0.08769719539554144 0.06 0.04
0.6103276788742336 0.06 0.04
0.5139034646412424 -0.06 0.0
0.9096368506350345 -0.020963842829632554 0.04
0.805541091654972 0.020469431563422978 0.0
0.8052789150181434 -0.019306901564895652 0.04
0.8203038938742353 -0.020636147377884773 0.0
0.08769719539554144 -0.06 0.0
0.08769719539554167 -0.06 0.04
0.9192992165657531 -0.06 0.04
0.8164681441220105 0.022269284396602723 0.039999999999999994
-0.9103536180674616 -0.021283841161765512 0.04000000000000001
-0.8777357995360431 -0.06 0.0
-0.9096368506350345 -0.020963842829632554 0.0
0.8570647961856006 -0.015388027432140593 0.04
0.7921016077200956 -0.06 0.04
0.8353421249080566 -0.06 0.04
0.7921016077200962 -0.06 0.0
0.4135884955929341 0.06 0.04
0.43891524330526177 8.673617379884035e-17 0.0
-0.7921016077200956 -0.06 0.0
-0.08769719539554144 0.06 0.0
0.14473309882269605 0.06 0.0
0.1726925416005594 -1.214306433183765e-16 0.0
0.11621514710911884 1.214306433183765e-16 0.0
-0.029521960903255984 0.06 0.0
0.0 0.0 0.0
0.17269254160055947 1.1796119636642288e-16 0.04
0.14473309882269625 0.06 0.04
0.0 0.0 0.04
0.2006519843784229 0.06 0.04
0.22806385632140147 -1.1796119636642288e-16 0.04
0.22806385632140147 1.0755285551056204e-16 0.0
-0.6720046167250797 -0.020579604775701428 0.0
-0.7030120427199962 -0.06 0.04
-0.7030120427199952 -0.06 0.0
0.25547572826438003 0.06 0.04
0.30922577824843556 0.06 0.04
0.25547572826437986 0.06 0.0
-0.02952196090325599 0.06 0.04
0.2006519843784232 -0.06 0.04
0.14473309882269605 -0.06 0.04
0.2006519843784229 -0.06 0.0
0.14473309882269625 -0.06 0.0
0.2823507532564078 -5.204170427930421e-17 0.0
-0.36192316205531716 -0.06 0.04
-0.41358849559293387 -0.06 0.0
0.5372746904547943 0.02439300391790418 0.0
0.5139034646412424 0.06 0.04
-0.5139034646412424 -0.06 0.04
0.41358849559293387 0.06 0.0
-0.7171469290115033 0.021165332718839136 0.04
-0.7479973317145417 0.06 0.04
-0.7030120427199962 0.06 0.0
0.08769719539554167 0.06 0.0
0.029521960903255984 -0.06 0.0
-0.02952196090325599 -0.06 0.0
0.02952196090325599 -0.06 0.04
0.02952196090325599 0.06 0.0
0.029521960903255984 0.06 0.04
-0.47805793986482265 0.03008719549728311 0.01940109733029794
-0.4642419910175897 0.06 0.0
0.6103276788742331 -0.06 0.04
1.0 -0.06 0.04
0.9600486361512205 -0.06 0.04
0.9600486361512215 -0.06 0.0
-0.3092257782484355 -0.06 0.0
0.877735799536044 -0.06 0.0
0.8777357995360431 -0.06 0.04
-0.41358849559293387 0.06 0.04
-0.4135884955929341 0.06 0.0
1.0 -0.06 0.0
1.0 0.0 0.0
-0.14473309882269605 0.06 0.04
-1.0 -0.06 0.0
-0.9600486361512215 -0.06 0.04
-1.0 -0.06 0.04
-0.7921016077200962 0.06 0.0
-0.9192992165657531 -0.06 0.0
-0.9600486361512205 -0.06 0.0
-0.7921016077200956 0.06 0.04
-0.7766984080639845 -0.02052537972713625 0.04
-0.5625923446839085 -0.06 0.04
-0.5625923446839077 -0.06 0.0
-0.877735799536044 -0.06 0.04
0.7921016077200962 0.06 0.04
-0.3619231620553172 -0.06 0.0
-0.7479973317145423 0.06 0.0
-0.8777357995360431 0.06 0.04
-0.4135884955929341 -0.06 0.04
-0.46424199101758934 -0.06 0.0
0.513903464641242 -0.06 0.04
-1.0 0.0 0.04
-0.877735799536044 0.06 0.0
-0.30922577824843556 -0.06 0.04
[...]
POINT_DATA 584
VECTORS displacement double
-0.03788064852473381 0.02074125986132849 0.04991721595059435
-0.03840353602823692 0.01984007575326192 0.014623233319482553
-0.05010509416216999 0.015841803313208683 0.028406825622200624
-0.004872664815196847 0.022170382419418603 0.010954028140595845
-0.007770042875723739 -0.0008769457134665669 -0.01620418349735866
-0.0022247918765198925 -0.0005728438916104535 -0.018021046120751387
0.005076779305158675 0.006478384775108308 -0.02228678448847345
-0.0020556625398373096 -0.00485560051914594 -0.018673341004603144
-0.011865586847910467 0.004974752083695668 -0.01189727462417832
-0.009310915791361559 0.008014821299425118 -0.0034026581769503158
0.006237330614643615 0.007019032902780389 -0.013991338641345458
-0.00703327092350599 0.008588819816687484 -0.010149598615901253
-0.005125445471406055 -0.011895382070156963 -0.0029242634114999924
-0.005299069606933746 0.0018283964921668385 -0.010989593957816467
-0.0031094607698027355 -0.010013989510628252 -0.009801778013109313
-0.017995807785029776 0.0006002470924739455 -0.005054205088768532
-0.010440107519987153 0.021723245250242374 0.00032053100862398373
-0.011956299593246641 0.02128273777444817 0.01852416229581283
0.0011631921880022056 -0.004817287404064246 0.00938726647032859
-0.008200338162793912 0.0142021996217922 0.010773926112015636
0.011713321744474162 -0.01809726600590685 0.013873992000833427
0.009140808159647639 -0.01026877898776869 0.007460207013112374
0.007780704072134901 -0.014910543184198809 -0.006151330722614908
0.018603794448316762 0.0036902551741169556 0.008807182408443194
-0.006985329038528141 -0.0017714546924282816 0.00446999269823528
-0.004965151590825418 -0.0005382316922325375 -0.0014164043325201447
-0.0016702220130292795 0.013000016972411663 0.0017382518770144477
0.0030473198780606656 -0.0018046239687382415 -0.02578360783796853
-0.01865132180092341 0.016089978890209834 0.006628813792640836
0.012768379059606282 0.0058346726977589365 0.0032226576349952585
-0.017960855426708177 0.012684783410812469 -0.0051223357623504185
-0.017886248749822024 -0.02054253827660666 0.003879954736912939
-0.012728643970465308 0.03161115305939633 0.0034705838536611307
-0.01711103932398178 0.05235642725067369 0.011405816101989201
0.025168901502074594 0.0029765840345892247 -0.0062502357272113535
-0.012818092745424085 0.021431978445215254 0.005732662028588995
-0.01670028454542334 0.025046942702244352 0.0032556451780666996
0.009787732967958698 -0.002594025358474808 0.002746437127562337
0.013494004865259377 -0.005603585226662688 -0.02350607669018787
0.0015251710712685172 0.0023453669234756503 -0.02408124799363983
0.004665010158283411 0.012709826577334755 -0.0035002456545114875
0.014151944886409295 -0.012907632236695723 -0.020193099770256528
0.020737303740454443 -0.0005663311815946313 0.01017740598485138
0.039093978917301674 -0.014380403505327224 0.023945250619664932
-0.0033792274618841423 -0.0005545426723776757 0.016613640818336186
0.013992024769329071 0.00019079789647802363 0.010620966364241102
0.003793158320878048 0.023919321994985566 -0.001163382857937345
-0.003430024315548606 -0.05344324525862776 0.00686497683955828
0.006396171703475383 -0.05959096256088975 0.0064669407613508634
0.003889335447000792 -0.011414234080749465 0.000358279806412937
-0.026725773097247402 0.0031971937405342525 0.008005852048343184
-0.017600931451817892 0.0029637480764664057 -0.0010362763316862744
-0.02723272360673096 0.014183176150365292 -0.0005619760058439682
-0.02534707168456567 0.01892508360615217 -0.003276763680464327
-0.023497966896665605 0.026787806400218512 0.006973623831369732
-0.019292856344083044 -0.03413373049940591 -0.013187336116885707
0.0019464107457162233 -0.03249961807046569 -0.034097602789662
-0.017052094695803554 -0.014760173818363748 -0.01695987962390086
-0.01818989901375132 -0.0030272424391182373 0.006051689720711966
-0.014574757387759546 0.011489142373825905 -0.019510698793020736
-0.03211787457210341 0.0003303216881202617 -0.008831079040715943
-0.015211320391163475 0.00603065640182968 -0.017679578157874628
0.00011962212400915969 -0.000425527472644815 0.009010898306732736
-0.019044257898746583 0.0004796573393116915 0.005209782582176371
-0.014460352662433871 -0.002884897462323778 0.004888911635522067
-0.013713278879720976 -0.004536016293037279 0.01747053727869044
0.021307407154569323 0.005756035313215439 0.016903385227348612
0.033816604909625424 0.007316617602649268 0.015310177965206407
-0.00022961667880860864 0.0029284147771419227 0.016027089157924355
0.041915808981610764 0.005893570267870624 0.01394930413140675
-0.018416208335895665 -0.0023765313424081317 0.016108268425597944
0.009756584544972604 0.013042990873401161 -0.0014393544606180835
-0.0010189904738710878 0.002937737573444159 0.013672902298909379
0.04029573048287099 0.007310099560628569 0.015118981854339414
0.012938634718141918 -0.011430811681535279 -0.023147440068604953
-0.0074464908515681 0.033599100982640205 0.0038750468840862188
-0.022476406743992927 -0.02789978211947172 0.0068708930715984185
0.029178909049143074 0.009748387947256965 -0.0012393613256255222
0.019316171141673836 0.0015505579161801928 -0.01813908164264236
0.0013196006421355242 0.0027980439156427223 -0.012437931868706932
0.002996151290903993 0.0011328233289583695 -0.005541389559045691
0.009142108996373376 -0.010278047163168985 -0.0288213928770094
0.012609135320609413 -0.0036747193563307326 -0.018993029641369515
0.015022300977830222 -0.004079106345163475 -0.008444544277600117
0.010019770022261542 -0.01242854296471179 -0.02014381861661303
0.016049882104335566 -0.01693266414011409 -0.015354438799163872
0.00289036294512202 -0.0064242013488593685 -0.047997856946203225
0.015270412438070204 0.0036903371857595936 -0.0282238488734646
0.016502341828176312 -0.0024898738319969 -0.017266280080784874
0.013337428224423051 -0.012158616909934158 -0.03845506001645179
0.006810511482987302 0.0035396420011195146 -0.03969676670572412
-0.004785614759413499 -0.00236227395889005 -0.03513631895593903
4.0231680686650205e-06 -0.005142709471665394 -0.032710389562443515
0.0018382469093590253 -0.0027095788786259023 -0.042774729651297784
-0.018227837872291285 0.011166383878381338 0.027557078445110794
-0.010042555396542635 0.022674723979757946 0.02486946552114272
0.002283523054239944 -0.010409253118249133 0.028154327148769562
-0.009044116834292584 0.03927865312638251 0.02507730137572632
-0.013046270207677086 0.020790226247785527 0.035145478063910905
0.011502463201448137 0.020115323219913443 -0.006705358128214393
0.031405543314055304 -0.01846059964554132 0.008413208065554756
0.01609600537507058 -0.04457353546920504 0.011616987407641036
0.02089707630378866 -0.02254725160031954 0.01480584329604067
0.0045550723149315004 0.009915326009048589 -0.007050060357991261
-0.014622111784984609 -0.006013706023359384 0.007745399174945445
-0.015091875137969406 -0.0021040905963511606 0.0029831397113098106
0.0014308692547233162 0.011804863277663086 0.0004803505710238391
0.008905094892297452 0.009772270691580447 0.010367738143584725
-0.006654419003008795 0.0012266628390731873 -0.02870245601811554
-0.035711819154363715 0.011357505166824966 -0.02209444121737378
-0.036532083454334056 0.014877240419151918 -0.027178440274211877
0.0020315204080302122 -0.006108327107227712 -0.008098173990815537
-0.0007585917022704681 -0.0004392239172768625 -0.018367471519592816
0.04650257675467103 -0.0028812830088028123 -0.016557458990559912
0.046654572254983304 -0.004034405250961891 -0.015894126601347626
-0.03698222840868815 0.015540016070519283 0.008860465386507487
-0.011573950051064374 -0.0015262358702858143 -0.003137529423973415
-0.0054016731216631145 0.005297335574647351 -0.009388629595078163
-0.004058374914743706 -0.008809433722117356 0.024790659691661422
-0.03319968971090043 0.015933916897308907 0.007516955298062106
-0.0320423651865033 0.005436939897782402 -0.021990780767724573
-0.0011756004577133563 0.0006205401734562919 -0.010110176753397218
-0.01886031766781539 0.003107217846606397 -0.017125053768495546
-0.0006307470800123119 -0.00030217802181387927 -0.017707762832697253
-0.01902824472036917 0.00281570198051348 -0.016012946747489105
-0.0181843627184608 -0.0001260557605074046 -0.014209733492295047
-0.0005120759887387632 -0.0034855132599114517 -0.007114485652151565
0.04359627807982577 0.0009306968642925355 -0.016049029200949763
0.0006049399082619793 -0.0008531797984630097 0.015609533202716413
-0.01290911343281828 -0.0035450913744815033 -0.021571767346304033
-0.037086899885956356 0.0052346295807471155 -0.017533740189848768
0.004783602436773548 -0.008305807888673617 0.0016269687499074403
-0.008165719985618663 -0.010261853645962982 -0.004155237854953518
-0.004168710303116221 0.004319342103031635 -0.014728543941985117
-0.007546141608978524 -1.3639925143194809e-05 0.016833503886979184
-0.008298927513398877 -0.006657744386953014 -0.00709952232317529
-0.007084662448169692 -0.001582863319819801 0.008533543416144852
-0.00425824994000113 0.002727599981074143 0.004769974436750299
0.009844226163684933 0.010099617915329675 0.01086178285460301
-0.02047437102823276 0.002889868638322049 -0.011095236471491585
0.012067306700123811 0.0026341348018501455 -0.015884469836249315
0.004322690522262016 0.013568605097619861 0.0026908762567149818
-0.010034398914259038 -0.04172069153038717 0.007672038072315734
0.005036690483774308 0.010838261349525133 -0.00033793145736595216
-0.014405494858659246 -0.003024500581466289 0.0015937704178910135
-0.008269999635575497 -0.008623063248166418 0.009791806002666638
-0.010051341945333326 0.0017767834862485296 0.007332499583986731
0.0004614466522728164 -0.006438731088677423 0.03045329824517035
0.012918178724891833 -0.019904163951432265 -0.028290428205880746
-0.010990758231226189 0.0044803701784118695 -0.009337132888031572
-0.02365404377439314 0.0024622144517197756 0.0009094387115334925
-0.0029497972124568864 -0.05068923323197262 -0.04921423696729481
0.00758187169457978 -0.029501243232958524 -0.044340149631365906
-0.013612397724769845 0.004628742214819115 0.03558822524567775
0.01140800755417562 0.011475893001861866 0.01434542211095294
0.007570065429264962 0.008990993001067052 0.009668296298917295
-0.019807361185433886 -0.0004527647942966832 0.010951913420591685
-0.02096439440141223 -0.0035519188416694614 0.002639826561267568
-0.031385214417770244 -0.008266774712840931 0.010137723595631915
-0.01792958798754405 -0.0031894917652815127 0.017602352600256735
-0.01920181719006408 -0.017594063816924053 0.004481688818540761
-0.019001290770237822 -0.005294034404945669 -0.0023888168253190997
-0.004029536522597569 -0.04632051454525151 -0.03392556804573378
0.010467929233359402 -0.020616876943478055 -0.03647145876255066
-0.006364698260417443 -0.001243093274938712 0.00941746291228182
-0.006005341386788035 -4.8448157296242466e-05 -0.005173218030604013
-0.005169843530186572 -0.00026618960724999157 -0.006115211058331488
0.010715977421125162 -0.00018121351021358736 -0.002712101190519034
0.02130860056850007 0.001143529538666641 -0.016558688405830496
-0.015251218216433613 -0.004993352145953144 0.016898681551134206
0.012389151145717429 -0.007034389667106847 -0.0008100833149581364
-0.02618220093478659 -0.014124770060686303 -0.0010333413232665011
-0.011963003070924336 -0.01073991354247533 0.0009878760287685088
-0.010741422362345373 0.005116285560832208 0.0036812382885537216
-0.003106493608122121 -0.004114776016545841 -0.00032578710486084393
-0.0003473968952165328 -0.004913832010590104 -0.00017366918586038507
0.03217602325601049 -0.023272451445076066 -0.00415024865117373
-0.026237457399993305 -0.010431251648505857 0.007810073918144959
-0.027120174650006025 0.004168035008869401 -0.010115175350805956
-0.03111218723134418 -0.043199769480541765 0.010961644826967489
-0.03365327335623099 -0.027441727816288126 -0.006543121923447592
-0.008057385119754401 0.029109138279164518 0.0003217874839705218
0.019186341060047435 -0.025695095424833544 0.004005075684021221
0.030035775509568752 0.015812024928653145 -0.006523079121890702
0.011966544028929445 -0.011586254229376902 0.001893888145380294
0.045823656168915206 -0.00432984755535274 3.985258648549225e-05
0.0031367840036469704 -0.002089158679862587 0.01024035763408387
-0.014861730041046982 0.02246967240608784 0.010392019424084388
-0.024568228302900164 -0.014659092530583747 0.009827034804807403
0.023855098238499888 -0.003346818693643952 0.018508818562193264
-0.0043946759422148285 0.0016458234624023719 0.019227019062236693
-0.004965920075521072 -0.0006888985086863443 0.010299697125122955
-0.012725797189346497 -0.015769380139568415 -0.002845951934275973
-0.008966211646604489 0.0002800398424843715 -0.006647526355337252
-0.004412988184149722 0.0008200078151368915 0.01760316296362855
0.023137390232169267 -0.0022632985622233082 0.013479603789352564
-0.005516928329162921 -0.001171945339674458 -0.005945742263847232
0.03580735614748043 0.0004213141587026175 0.014436304522413356
-0.0028860054299835606 -0.00011147694182692476 0.007177955078514703
-0.0033826281419354846 0.0015104218551995003 0.009007593565571875
0.0002644202378844403 0.019438498653815434 0.009871638378422299
0.004341750533448814 0.016560225569306752 0.015650724025312528
-0.00674019053587908 0.03156689825332995 0.010255263818981114
0.0408621597718097 0.00022550978229970964 -0.00026331264739906646
0.04490196044340049 0.0009841954151578688 -0.015780082206461016
0.04062972699665536 0.00034270683579129877 0.0006803567552438996
-0.01271870436083266 -0.009416859470627707 -0.008617153871377662
-0.014083521006439042 8.033876002849863e-05 0.013199702186023142
-0.007962303985242107 -0.004067782992854547 0.014320865910924225
-0.012568524400482346 0.0009907904733945122 0.014008201664885984
-0.008108926533122878 -0.002726454528078857 0.014880738982154055
-0.002872828960895924 0.0021969475870342496 -0.010995763757912228
0.04433772209037977 -0.015497483052437219 0.018472138111558678
0.04118102893012761 -0.022806807617946137 0.04832657268906424
0.010919359725614664 0.005401059058344706 0.006183961118283296
0.03720523669704512 0.0013831932760343703 0.016106159904511773
0.045578008231361364 -0.009326434515970015 -0.0008161696204309798
0.04708981574246879 -0.007663929567779417 -0.002314619529012229
0.0034634840564505202 -0.016929748631919424 0.038680487222160255
-0.004321093620522782 -0.03906165707161327 0.04020959735967127
0.014295047223075707 -0.04998618844644474 0.01401426679927799
0.01686982515271857 -0.0017651995940772753 0.001515986789372944
0.002253397680786013 0.003847002754556038 -0.013618263179153876
0.0036005526937310365 0.013915989245695613 -0.011307602320738182
0.004106653072715071 0.002044253203865353 -0.012571887336110378
0.0046074367416766866 0.00026551127258889337 -0.008356143889654454
0.0018090018651069283 0.0003246679189585 -0.01280523596043458
-0.006736158033373254 0.02737228788074084 0.01017667818841909
-0.01283661874753325 0.035714285781195274 0.019468399913076875
0.0022841895524336217 0.0007347979158432865 -0.006904049177610563
0.0377611817017756 -0.04130815652140932 0.0006151981053692866
0.03502592634266554 0.014686350139030285 -0.0021454966955048722
0.027704939140314636 0.016720655526552736 -0.003135758931089945
0.02941593900926361 -0.018474695508541097 -0.0030947600675244155
0.022749253015034724 0.034307224879904445 -0.014241736789925455
0.031712334735156854 0.01302868052547134 -0.013491940584934877
-0.028277925543609923 0.009543610310143634 0.021745629826265676
-0.030775451236673877 0.0071932364614158625 0.025675837774074294
0.027481514718341697 -0.036729223250735195 -0.004416492325928184
-0.007340146652254388 -0.04193037090642387 0.009223515457778558
-0.03130488357335377 -0.003663081851752767 0.011272360750038256
-0.05356348317506748 -0.00654108476640167 0.045251322068381276
-0.04100243802730904 0.011874100051993708 0.01287080392598208
-0.04465661624003556 -0.017744844064203465 0.024359869193725067
-0.0056435482116620524 0.06848720742351934 0.029041090543869566
-0.04232973306591821 -0.008546679325161606 0.01969347864451777
-0.0480854841092397 0.013070506167225557 0.03236169121239133
-0.015695513367049208 0.06440671120771438 0.038763981219016426
-0.005802877295697446 -0.0029689984885804166 0.014963975226200353
0.027842605410690478 0.016181955446624312 -0.00948758160806755
0.03594596876731577 -0.0069235697911387084 -0.010795778434301873
-0.028550322609658906 -0.028607949621725807 -0.005028796080648415
-0.02557065888194481 -0.014309071969235814 0.002280089610241757
0.03628638871538147 -0.025462337047606844 0.026529506762019327
-0.0018751685236525542 -0.020843790870659816 0.036870008433159115
0.00326049857462262 -0.007454314621750109 -0.06164063688204224
0.04168000392845645 -0.00974782985763024 0.03687381850610103
0.04275540311243 -0.02597138262706253 0.038825864808799196
-0.016840794829755583 -0.0046412034396430815 0.012471220824859897
-0.02252138665982679 0.019063615585228528 0.040844682180804295
-0.001988829915630461 -0.03884898722165345 -0.06036274583245079
0.03788987202274937 -0.010973181825680604 -0.009691202789449304
0.03135973650171761 -0.006206883247319027 -0.016220095974931868
-0.02418011067219281 -0.0070078542805943845 0.0067008078531995054
-0.018294290432929388 0.00209291768876155 -0.0045438003902724495
0.028385693176024938 -0.012359699996529805 -0.014191969496491996
0.009943674123166338 0.021211887082435026 -0.0022707539949524446
-0.034214714098481064 -0.005408664172067241 -0.0031739972058769817
-0.007701330428457996 0.015982468397052394 -0.011744734406663283
-0.0054340051660436315 0.035957557312372726 0.022149993364107678
0.00960167853526247 0.01778534620915338 0.0008762684216662661
0.0195427989039001 -0.009231492704794834 0.06018188009521341
-0.012087803825179934 0.009460957154747611 -0.0006732540714527432
-0.014712312912939129 0.03203654676920164 0.019389549468667982
-0.005151809291758578 0.019029564421682413 -0.003922584540068258
0.023401649783137392 -0.008497451182833245 0.007683215977241479
0.004256056839392247 -0.011346696855067551 0.004283937003228201
-0.015306671493088411 3.1959447662556076e-05 -0.0025244271223890218
0.02168133056733247 0.026976700328798012 -0.008071377096711916
0.048370869879789065 -0.019944631511907663 0.008484497983121902
-0.031563174026794504 -0.0031657215002606413 -0.0018666570951604024
-6.467719857635651e-05 -0.015181770625200382 -0.02071188101230871
-0.02493949381981673 -0.03434058442580491 -0.019704176537975487
-0.0335788908210421 -0.053535418716304475 0.010418939696631851
-0.02757593196860742 -0.017053353529917676 -0.01033688352342427
0.028115305792721854 -0.006563429598293667 -0.010612262478323375
0.026968485454553114 0.008727754769476443 -0.001806462792311124
6.719840610677476e-05 0.015059056365017798 -0.0016309048248524397
0.010671656571757376 -0.023441337533857548 0.004797491562299869
0.018604589873165083 -0.007337311614737401 0.000502005216192111
0.01070066890780137 -0.008571723045395727 -0.00471113569132612
0.031136897143662075 0.001041008991739418 0.01957897022720803
-0.025268789541573435 -0.005298438593178581 -0.02499480192395943
-0.021566605578843368 0.00664995673075116 -0.0025163272822883585
-0.03494983001520177 0.007710411639185073 -0.015052901595163667
-0.010774018672644567 0.010514839513787443 -0.010492857724614774
-0.007779012951051279 0.0009712661396780486 0.0037493071657635165
0.01401217041275911 -0.010856894070315707 0.002481349665686691
0.002860570731807868 0.025777532068811126 -0.030553014282592415
0.036441095068948076 0.0017162810401434411 -0.027728264333827173
0.031013047120820293 0.009440467998628176 0.003200407781796155
-0.0022675796221996863 0.00092918960341243 -0.012653325355955255
-0.0043821890879360125 0.004734523321938825 -0.02370865895755281
0.002905093263179176 0.036086672889277076 -0.016669716564968004
-0.0010289772277705116 -0.01074788104758138 -0.004253138223814167
-0.033596759350139005 0.007748632115163446 0.018383662183205595
0.02276802918006317 0.006914259818267967 0.010677670497259519
-0.011397957674040043 -0.02596520247344697 0.03533261073484955
-0.03236471842024865 0.0045500177183340615 -0.026636286910524807