# vtk DataFile Version 2.0
Really cool data
ASCII
DATASET UNSTRUCTURED_GRID
POINTS 584 double
-1.0 0.0 0.0
-0.9600374798207896 -0.027590413451835553 0.04
-0.9589620457797374 -0.028177574718636023 0.0
-0.9553815213922792 0.019675326217199102 0.04
0.6719637381218919 0.02110482676547816 0.0
0.6414775595248179 0.020020515529780993 0.04
0.6571281419012174 0.06 0.0
0.6240641012293764 0.022292119262118645 0.0
0.687851041884645 0.021313940245698455 0.04
0.7030120427199962 0.06 0.04
0.657128141901218 0.06 0.04
0.7030120427199952 0.06 0.0
0.6885310613992013 -0.0196061899732657 0.0
0.6720046167250797 -0.020579604775701428 0.04
0.6407079554435648 -0.019738458112036637 0.0
0.7171469290115033 0.021165332718839136 0.0
-0.7921016077200962 -0.06 0.04
-0.7604373514312079 -0.019298436119384588 0.0
-0.7479973317145423 -0.06 0.04
-0.7479973317145417 -0.06 0.0
0.7030120427199962 -0.06 0.0
0.7030120427199952 -0.06 0.04
0.6571281419012174 -0.06 0.04
0.7479973317145417 -0.06 0.04
0.7325903506195701 -0.020274227246539274 0.0
0.7176321617908783 -0.019839353713154383 0.04
0.7604373514312079 -0.019298436119384588 0.04
-0.8488906624897727 0.019856366527450334 0.04000000000000001
-0.8052789150181434 -0.019306901564895652 0.0
-0.805541091654972 0.020469431563422978 0.04000000000000001
-0.8203038938742353 -0.020636147377884773 0.04
0.897529295217204 0.022569895749215793 0.0
0.8488906624897727 0.019856366527450334 0.0
0.8569454102823642 0.029774901726562965 0.04
0.8777357995360431 0.06 0.0
0.9553815213922792 0.019675326217199102 0.0
0.95349853104827 0.02147987272312249 0.04
0.9103536180674616 -0.021283841161765512 0.0
-0.5450807564691462 -0.01715484187473429 0.04000000000000001
-0.5372746904547943 0.02439300391790418 0.04
-0.49049502097572617 0.000359712426279548 0.04000000000000001
-0.5409244119327052 -0.005150142234760652 0.0
-0.48901428549955095 -0.02776609156780287 0.019771763033692314
-0.4642419910175897 -0.06 0.04
-0.43891524330526177 8.673617379884035e-17 0.04000000000000001
0.7479973317145423 -0.06 0.0
0.9600486361512215 0.06 0.04
1.0 0.06 0.04
1.0 0.06 0.0
0.9192992165657531 0.06 0.0
0.7479973317145423 0.06 0.04
0.7309057796957548 0.02177174945441851 0.039999999999999994
0.7479973317145417 0.06 0.0
0.7613659684934695 0.020945326906433456 0.0
0.7736855084518748 0.020914979208800512 0.04
-0.8570647961856006 -0.015388027432140593 0.0
-0.8569454102823642 0.029774901726562965 0.0
-0.8649535140731797 -0.02016838668923704 0.039999999999999994
-0.1726925416005594 -1.214306433183765e-16 0.039999999999999994
-0.22806385632140147 1.0755285551056204e-16 0.039999999999999994
-0.2006519843784229 0.06 0.0
-0.22806385632140147 -1.1796119636642288e-16 0.0
0.438611990705585 -5.252150912499892e-05 0.04
0.41358849559293387 -0.06 0.04
0.4135884955929341 -0.06 0.0
0.4642419910175897 -0.06 0.0
0.4782715374234063 0.0302584611690398 0.019894876072988572
0.513903464641242 0.06 0.0
0.49049502097572617 0.000359712426279548 0.0
0.46424199101758934 0.06 0.0
0.46424199101758934 -0.06 0.04
-0.8164681441220105 0.022269284396602723 0.0
0.48912437490067595 -0.00041996788971368666 0.04
0.4642419910175897 0.06 0.04
-0.8353421249080566 0.06 0.04
0.8649535140731797 -0.02016838668923704 0.0
0.8973163514988121 0.02144006532192878 0.04
0.5625923446839085 0.06 0.04
0.6103276788742331 0.06 0.0
0.5943416245309461 0.018901239582525348 0.04
0.5790918012159274 0.021628695864523574 0.0
-0.593631917725493 -0.01946781888421301 0.04
-0.6103276788742336 -0.06 0.04
-0.6407079554435648 -0.019738458112036637 0.039999999999999994
-0.6264545933043166 -0.021459100211208025 0.0
-0.6103276788742331 -0.06 0.0
-0.6103276788742336 0.06 0.0
-0.6240641012293764 0.022292119262118645 0.04
-0.6414775595248179 0.020020515529780993 0.0
-0.5943416245309461 0.018901239582525348 0.0
-0.5790918012159274 0.021628695864523574 0.04000000000000001
-0.5625923446839077 0.06 0.04
-0.6103276788742331 0.06 0.04
-0.5625923446839085 0.06 0.0
-0.7325903506195701 -0.020274227246539274 0.039999999999999994
-0.7176321617908783 -0.019839353713154383 0.0
-0.7309057796957548 0.02177174945441851 0.0
-0.7736855084518748 0.020914979208800512 0.0
-0.7613659684934695 0.020945326906433456 0.04
-0.6571281419012174 0.06 0.04
-0.6719637381218919 0.02110482676547816 0.039999999999999994
-0.7030120427199952 0.06 0.04
-0.687851041884645 0.021313940245698455 0.0
-0.029521960903255984 -0.06 0.04
-0.05860957814939871 -6.938893903907228e-17 0.039999999999999994
-0.05860957814939863 5.898059818321144e-17 0.0
-0.08769719539554167 -0.06 0.0
-0.08769719539554144 -0.06 0.04
-0.2823507532564078 -5.204170427930421e-17 0.04
-0.25547572826437986 0.06 0.04
-0.25547572826438003 0.06 0.0
0.38751191920162714 6.938893903907228e-18 0.0
0.3352618020299945 -3.469446951953614e-18 0.0
0.36192316205531716 0.06 0.04
0.3619231620553172 0.06 0.0
-0.36192316205531716 0.06 0.0
-0.335244821032008 -1.1796296425746478e-06 0.0
-0.3352618020299945 -3.469446951953614e-18 0.039999999999999994
-0.38745316199969926 -7.894682722445895e-06 0.0
-0.3619231620553172 0.06 0.04
-0.3092257782484355 0.06 0.04
0.28235075325640757 5.551115123125783e-17 0.039999999999999994
0.30922577824843556 -0.06 0.0
0.335244821032008 -1.1796296425746478e-06 0.04
0.3092257782484355 -0.06 0.04
0.36192316205531716 -0.06 0.0
0.38745316199969926 -7.894682722445895e-06 0.04
0.3092257782484355 0.06 0.0
-0.38751191920162714 6.938893903907228e-18 0.04
-0.28235075325640757 5.551115123125783e-17 0.0
-0.30922577824843556 0.06 0.0
0.6103276788742336 -0.06 0.0
0.593631917725493 -0.01946781888421301 0.0
0.6264545933043166 -0.021459100211208025 0.04
0.4889627886584896 -0.027603176797077415 0.020155725176282127
0.583287522480325 -0.023728770665855194 0.039999999999999994
0.5450807564691462 -0.01715484187473429 0.0
0.5409244119327052 -0.005150142234760652 0.04
-0.48912437490067595 -0.00041996788971368666 0.0
0.3619231620553172 -0.06 0.04
-0.657128141901218 0.06 0.0
0.9600374798207896 -0.027590413451835553 0.0
1.0 0.0 0.04
0.9589620457797374 -0.028177574718636023 0.04
0.5625923446839077 -0.06 0.04
0.5625923446839085 -0.06 0.0
0.7766984080639845 -0.02052537972713625 0.0
-0.438611990705585 -5.252150912499892e-05 0.0
-0.583287522480325 -0.023728770665855194 0.0
-0.9600486361512215 0.06 0.0
-0.95349853104827 0.02147987272312249 0.0
-0.9192992165657539 0.06 0.0
-0.9192992165657531 0.06 0.04
-1.0 0.06 0.0
-0.14473309882269625 -0.06 0.04
-0.14473309882269605 -0.06 0.0
-0.11621514710911887 -1.214306433183765e-16 0.0
-0.17269254160055947 1.1796119636642288e-16 0.0
-0.14473309882269625 0.06 0.0
-0.11621514710911884 1.214306433183765e-16 0.039999999999999994
-0.8353421249080566 -0.06 0.0
-0.8353421249080575 -0.06 0.04
-0.8973163514988121 0.02144006532192878 0.0
-0.897529295217204 0.022569895749215793 0.04
0.11621514710911887 -1.214306433183765e-16 0.039999999999999994
0.05860957814939871 -6.938893903907228e-17 0.0
0.05860957814939863 5.898059818321144e-17 0.039999999999999994
0.08769719539554144 0.06 0.04
0.6103276788742336 0.06 0.04
0.5139034646412424 -0.06 0.0
0.9096368506350345 -0.020963842829632554 0.04
0.805541091654972 0.020469431563422978 0.0
0.8052789150181434 -0.019306901564895652 0.04
0.8203038938742353 -0.020636147377884773 0.0
0.08769719539554144 -0.06 0.0
0.08769719539554167 -0.06 0.04
0.9192992165657531 -0.06 0.04
0.8164681441220105 0.022269284396602723 0.039999999999999994
-0.9103536180674616 -0.021283841161765512 0.04000000000000001
-0.8777357995360431 -0.06 0.0
-0.9096368506350345 -0.020963842829632554 0.0
0.8570647961856006 -0.015388027432140593 0.04
0.7921016077200956 -0.06 0.04
0.8353421249080566 -0.06 0.04
0.7921016077200962 -0.06 0.0
0.4135884955929341 0.06 0.04
0.43891524330526177 8.673617379884035e-17 0.0
-0.7921016077200956 -0.06 0.0
-0.08769719539554144 0.06 0.0
0.14473309882269605 0.06 0.0
0.1726925416005594 -1.214306433183765e-16 0.0
0.11621514710911884 1.214306433183765e-16 0.0
-0.029521960903255984 0.06 0.0
0.0 0.0 0.0
0.17269254160055947 1.1796119636642288e-16 0.04
0.14473309882269625 0.06 0.04
0.0 0.0 0.04
0.2006519843784229 0.06 0.04
0.22806385632140147 -1.1796119636642288e-16 0.04
0.22806385632140147 1.0755285551056204e-16 0.0
-0.6720046167250797 -0.020579604775701428 0.0
-0.7030120427199962 -0.06 0.04
-0.7030120427199952 -0.06 0.0
0.25547572826438003 0.06 0.04
0.30922577824843556 0.06 0.04
0.25547572826437986 0.06 0.0
-0.02952196090325599 0.06 0.04
0.2006519843784232 -0.06 0.04
0.14473309882269605 -0.06 0.04
0.2006519843784229 -0.06 0.0
0.14473309882269625 -0.06 0.0
0.2823507532564078 -5.204170427930421e-17 0.0
-0.36192316205531716 -0.06 0.04
-0.41358849559293387 -0.06 0.0
0.5372746904547943 0.02439300391790418 0.0
0.5139034646412424 0.06 0.04
-0.5139034646412424 -0.06 0.04
0.41358849559293387 0.06 0.0
-0.7171469290115033 0.021165332718839136 0.04
-0.7479973317145417 0.06 0.04
-0.7030120427199962 0.06 0.0
0.08769719539554167 0.06 0.0
0.029521960903255984 -0.06 0.0
-0.02952196090325599 -0.06 0.0
0.02952196090325599 -0.06 0.04
0.02952196090325599 0.06 0.0
0.029521960903255984 0.06 0.04
-0.47805793986482265 0.03008719549728311 0.01940109733029794
-0.4642419910175897 0.06 0.0
0.6103276788742331 -0.06 0.04
1.0 -0.06 0.04
0.9600486361512205 -0.06 0.04
0.9600486361512215 -0.06 0.0
-0.3092257782484355 -0.06 0.0
0.877735799536044 -0.06 0.0
0.8777357995360431 -0.06 0.04
-0.41358849559293387 0.06 0.04
-0.4135884955929341 0.06 0.0
1.0 -0.06 0.0
1.0 0.0 0.0
-0.14473309882269605 0.06 0.04
-1.0 -0.06 0.0
-0.9600486361512215 -0.06 0.04
-1.0 -0.06 0.04
-0.7921016077200962 0.06 0.0
-0.9192992165657531 -0.06 0.0
-0.9600486361512205 -0.06 0.0
-0.7921016077200956 0.06 0.04
-0.7766984080639845 -0.02052537972713625 0.04
-0.5625923446839085 -0.06 0.04
-0.5625923446839077 -0.06 0.0
-0.877735799536044 -0.06 0.04
0.7921016077200962 0.06 0.04
-0.3619231620553172 -0.06 0.0
-0.7479973317145423 0.06 0.0
-0.8777357995360431 0.06 0.04
-0.4135884955929341 -0.06 0.04
-0.46424199101758934 -0.06 0.0
0.513903464641242 -0.06 0.04
-1.0 0.0 0.04
-0.877735799536044 0.06 0.0
-0.30922577824843556 -0.06 0.04
[...]
POINT_DATA 584
VECTORS displacement double
0.017581668457474237 -0.013595597913573966 0.00879726371735713
0.014268812520241961 -0.012878369212098607 0.011243931833902357
0.017839705514965023 -0.03086257162041733 0.013052831641072498
-0.0089516556505009 0.005631730556552213 -0.0035626457807906068
0.03469397254247901 -0.028905374309893664 -0.021820006330902572
0.015105714419198288 -0.002547877469359814 -0.010824633464400614
-0.015160564655261239 -0.03267315815748731 -0.027191905157352977
0.019580537631394536 0.0005111846726537638 -0.0013272241863707566
0.0229443406567958 -0.02173656722856016 -0.01611394326425819
-0.050321722660032486 0.012110590168442879 -0.014948958091770038
-0.025955869342927856 -0.01477581177570504 -0.030418386722494382
-0.029834885222252343 -0.002142601817636461 -0.009571709932149841
0.03330969739829289 -0.014044032544745927 -0.016487818320215068
0.011720346335443207 0.00017346496937813762 -0.014565645705810428
0.00950022437704973 0.004712022380175307 -0.014808578121381632
0.03836922691660846 -0.007116347133481379 0.005397620045260611
-0.0006506064433702468 -0.011936631796743554 0.0022938302162188516
-0.016882373493288097 0.009957429067576695 -0.011373295446120008
-0.010699384098450032 0.0032117304498807267 -0.012118392824896417
-0.006771611734446408 0.023299161858772784 -0.03288697955648282
-0.02515204152669974 -0.006486332846021425 -0.013312965952799903
-0.03874385949084298 -0.005345571717617758 -0.014343617286209415
-0.04637076018335408 0.027601870902124202 -0.01628341918039105
-0.032528338220019014 0.009571211498456083 0.010328101007435949
0.04274151190140668 -0.0003604181561274303 0.009849622506692572
0.021933605198177754 -0.01012992605617455 -0.003942436161090545
0.03530231978412175 -0.001833939569924742 0.014816155921410673
-0.0012749345353483361 -0.004005398643393407 0.001211554333625941
-0.007595968740799257 -0.0011865409066444043 -0.006900529970909359
-0.005274490661463062 -0.009101849664057363 0.008328923654438273
-0.005362136689803417 -0.007945309254902354 -0.003973448932020538
0.051406569314916196 0.0029028888913688843 -0.031146579613823923
0.050175252056966976 0.007122749308239855 0.001731222257177222
0.03044778266793089 0.018294148265301437 -0.004660779177007883
-0.03499936043426322 0.0019391649644109666 -0.021592269243347707
0.05372481373892736 -0.004779182652650753 -0.01025223835653649
0.030472701250564817 0.0009515624331838826 -0.009209518825080962
0.048132212847938546 -0.004298537877726053 -0.02950021593036138
-0.010956179520497013 0.007940353356355212 0.019805010613098313
0.0037141763170972317 0.004642194181163162 -0.005192978118567185
0.0004611153418621335 0.0007562635699021561 -0.000972504209844796
-0.015190340314385412 -0.012644125318142525 0.011772177441069842
0.01323134820109086 0.004762187086641757 -0.0006185659782069193
0.019933852903278704 0.016800980026895996 -0.008286339750774592
0.013772725122302978 0.019747907445997876 -0.00719718963700313
-0.01740916341537994 0.013101796060866444 0.011004704254169185
-0.030805187551545352 -0.048162273070603306 -0.006071098289394744
0.0017161405821398653 0.018819795689611354 0.018406666359797503
0.007103624889675821 0.028760721743227403 0.019720390104669354
-0.040040187212236074 0.0059958181422250486 -0.03245382217186193
-0.0701646233698012 0.026918303633452996 0.020487653592006567
0.023524725820373734 -0.007242012033065632 -9.351172461545776e-05
-0.053276551353141785 0.0389907511027656 0.033129777398323665
0.03571761138619871 0.028819421453673076 0.0285541457163152
0.02304380985150174 0.023741670995429027 0.023194556472827792
-0.0006520852012384825 0.009857980846265185 -0.009350500147436795
-0.005569128418851771 0.018774447965537646 0.005428276592556057
0.004232510855618232 0.003775185399069583 -0.011608730876678535
-0.011975539806746397 0.009126498154759933 0.02178391308314173
-0.021313018482152564 -0.014723213562124821 -0.011394548868661963
0.00896423255962765 -0.009159162844056918 0.004799679257262507
-0.02319614891998536 0.0013651794872678743 -0.02290218748049481
0.022679822350260472 0.00518585379815262 -0.0323015275659963
0.00828174316172459 -0.0021264725234589675 -0.028201334296452336
0.012402580934222524 -7.647833502870647e-05 -0.02466025018520753
-0.0009487442495820357 -0.033299693239586516 -0.01588072961506992
0.02170393862766179 0.014598465011728713 -0.020417816706589594
0.0190289594753614 0.018559413607277215 0.011605918623997777
0.022411949695508446 -0.004403254597857076 -0.006835003075818195
0.019554269426742696 0.03471373194156953 -0.007591067948830464
-0.012656722311269233 -0.02268635387350239 -0.010964703557964011
-0.002165839554806075 0.01174801763003367 0.013102631482908059
0.01161906723343157 -0.0005101344802267097 -0.020119401673929907
0.021459078907333774 0.01896056080519818 -0.017882873636228754
-0.028050743141667604 -0.0004555549414050534 0.018156505982436028
0.05454656542665286 0.00403076461274122 -0.012067182676007784
0.037802548322822704 0.004858669397844219 -0.022818447413231174
0.010730177376464362 -0.0029780734491917965 0.026376449683056427
-0.007017580847820922 0.006624429234390484 0.0025046509533169447
0.02072127454706649 -0.007880860855628167 0.02056267147520455
0.01755144273927134 0.0012093436955901596 0.018346816368974728
-0.022494307377314865 -0.02251758916122772 0.016965126893956173
-0.03652906994962231 -0.031801775540239836 0.010886836459771787
-0.02394009536860758 0.024334158365346154 -0.006693151535394515
-0.01345302529466784 -0.0040736462527531745 0.00505918078057076
-0.02948390499105027 -0.04392989325878571 0.02690879586238284
0.03897392588824291 -0.00602862293750881 0.023733064508580395
0.01485584527377287 -0.02328498682213121 0.003817691462379578
0.014610849470496384 0.00131514761770463 -0.0005526365355228838
0.019044845577418864 -0.01874612671093507 0.018002794493008407
0.013330640796309592 -0.0008818314961327382 0.0035205549822472123
0.03135079877762486 0.04642754188083987 0.001220553735481938
0.03601855423356812 0.009504599191262748 0.009197115782491555
0.024300264542176615 0.0317197683802405 0.006681609719318279
-0.01640018596654791 -0.00415069391439657 -0.01229447054844248
-0.02117043126030186 0.01458323090515906 -0.02640617653869653
-0.0012452593913672837 0.020150003072691006 0.003291182477707278
0.0006952243052115047 0.0023935491332917444 0.015647039424529916
0.00420755565995456 -0.013135795144525727 0.009243459116199112
0.03295581394079309 0.0008827101489569563 -0.0027758802202885583
-0.0001783575079317703 -0.004801465202874487 -0.009401986857100517
0.015549035451211357 -0.005063936811025683 0.0006052772910436279
0.004625657242088521 0.010907646732617127 -0.0024344422083062683
0.03235716809950081 0.004080344284209979 -0.02297973382752628
-0.01817552187267167 -0.0024750543591474748 -0.014022923512395421
-0.012887964958841118 -0.009838277051247572 -0.005872419902352263
0.029269405720090888 -0.019548067262673798 0.024100144700917796
0.024679294884658722 -0.008683319870610183 0.018953245974337403
-0.011141684544040334 0.004822766474620291 -0.028543097828252532
0.022499518559649198 0.0006036486209622384 -0.006187020942357394
0.019963033356975364 0.017272155078872625 -0.009987940740589119
0.02838711313976331 0.012924810536249014 -0.008116131489167745
0.020853642976703664 -0.008095370603263104 0.02143809148490064
0.017868392556674606 -0.0061840105090640585 0.015266558967798194
0.020353784248239557 -0.001758070784580539 0.01597079959104724
0.05790914265859237 0.04944992470904419 0.030716454517256287
0.0008885589749828386 -0.003949912477590033 0.002335922742053277
-0.006278769115795541 -0.00344358598956074 -0.012524520564037064
0.014659473502215376 0.0007306903750701224 0.010369384300500502
0.05211901216718596 0.025539390344795927 0.028026018630380102
0.03460576123588461 0.027194532002159932 0.00527704278970316
0.010746523077263901 -0.006933302573540058 0.018263977606973077
0.015085803820573224 -0.006301152911225817 0.02695778562004026
0.018733983952306233 -0.00767269645857173 0.02791137347055436
0.017211819916179594 -0.00306405234872058 0.03388033387707617
0.015860604811640432 0.023751058884572036 0.0012909464379929863
0.024377906721141644 0.0028353908799245036 -0.006061264080552413
0.013396024993742848 -0.035051486120998315 0.020459826831227292
0.005660523781849205 -0.0030912934931689624 -0.002003168917396253
-0.020380927656486702 0.008430915399715567 -0.01798413991612879
0.02611610688325945 0.04529516476180426 0.010435345212014526
-0.057060267999536764 0.026901374211701197 -0.007838482635322426
0.0015081471593262827 0.02593198360889404 0.008153582771212416
0.004756870891346404 -0.0076857756571772125 0.00013315205645493975
8.559345173207882e-05 -0.018183090652764463 -0.00791306906127755
-0.004323393966047686 0.025295998692748303 0.018858497574913553
-0.0006965321707495325 -0.012800964557088514 0.02601740192246645
0.0037566616912597167 -0.0005161556453223709 0.016931365136502573
-1.2793162292511538e-05 -0.022384247765591715 -0.014284077277606742
0.014371018040107401 0.021535232172925314 0.008980021805566864
0.02552054530408817 0.01793835775282974 0.015934591799137483
0.054432025374684466 0.008612781598152082 -0.009240006971589783
0.03971922283664335 -0.0021244584062385806 0.021685454240277943
0.03337676108085622 0.007639199061341357 -0.004888615660019381
-0.029726201497139303 -0.0056095711081117355 0.022115703483220304
-0.03645585086801011 0.0020833492961063378 0.020146084624172306
0.045959710356191466 0.004914838692362395 0.026511755682264906
0.022516339938455653 0.01721710118085691 -0.010056365609790344
-0.023162849494205925 -0.03587211784824669 0.027162806954677755
-0.06208059556972013 -0.02848857035721066 -0.02318141153540095
-0.01305544946498319 -0.013600724030833448 -0.00890045783665143
-0.045906596941308796 -0.00234372869628153 -0.004108886953736157
-0.051816754085025174 -0.015120134920503316 -0.00799719489615466
-0.06993673952257286 -0.015123807392830538 -0.015362970533838506
0.023999197797097842 -0.01060972569698878 0.032698755546144445
0.03043329137505598 -0.006785590799991149 0.03255204106807523
-0.011618439605435125 -0.007858140163453172 0.029523266405729956
-0.00680375893529574 0.010468133139826256 0.01640475794301232
0.012346012488946173 -0.010172005755135272 0.020614099203397657
-0.011891298943313259 0.005077061509763907 0.022140228831802895
0.01345974487805973 -0.013051220809201049 -0.014672703742267552
0.021289987964279215 -0.022852341962021693 -0.008122306433814482
-0.0023097916513073885 0.026506470290674503 -0.004589633949613002
-0.0028548341862658024 0.01936539027728127 -0.007447594981349028
-0.004522505451046436 -0.008287899498202729 0.0014332520880533074
0.00022775960201303202 -0.0017040212182912354 0.009631429472778534
-0.008783316712026206 -0.002327301123310197 0.008552299654754352
-0.007348976011317425 -0.0005760523122281667 0.019028218987236525
-0.020176104522792452 0.01820583572031305 0.011155147216643856
-0.022744616157026575 -0.041146885789802475 0.028073685866326012
0.03129056902685255 -0.01399240425875234 -0.024972437287025286
0.04259848368381874 -0.0065829440896670284 0.025895679898640202
0.030213476998811266 -0.010278637732044014 0.017265231288792093
0.04591481606145595 -0.0018640505348085617 0.014145277678846439
0.027572827205924983 -0.02022698571233811 0.026987086437685583
0.027014199436028324 -0.008813518410755445 0.026894561588706414
-0.004880497166612993 0.01663452922283107 -0.028379606170004207
0.03561710681912015 -0.008132268224457432 0.017935984876126788
0.007175794080770723 0.01009519862599333 -0.011519809745409339
0.028773973342487075 0.007730386639523913 -0.012794042146791829
0.0072374101458306415 0.012942304664958774 -0.005509268988769041
0.040746103316826196 -8.815435408434531e-06 -0.009766114404604582
-0.028018731351755272 -0.015661999111105836 0.01816971612449176
-0.020989166317979747 0.0077578073341211095 0.004902423201038515
-0.020941185568103777 -0.009791535429722654 0.023072157512691045
0.021809611570848778 0.007255521799458602 -0.011270385215411322
0.03018072959975905 0.008663469926497993 -0.027832890003338523
0.0008158191427667123 -0.0033199693160333183 -0.010634574015359213
0.00752239150874467 0.006923615464410831 -0.004023011561992364
-0.004495744169043343 0.014720775583740497 0.0037628793216693307
-0.00482386463695554 0.006679028209351998 -0.013241339472143012
9.39894074770484e-05 -0.01152980165881181 0.0092817933574293
0.002784200519962832 -0.003941691238107072 -0.02532591558055311
-0.0015966614915135003 0.014862836166875395 -0.020001929009124564
-0.006485717509146668 0.004937883463146354 -0.023933763634254857
-0.012142015850689957 0.0035631913512950766 0.0024018965713480714
-0.014885853271037969 0.01104535071663268 -0.016591599082768044
-0.008588085020319193 0.015345107707123723 -0.016231678722751067
0.0011160562193505193 0.0018478141184527918 -0.01904160443190784
0.005118564250172681 0.010832111317528332 -0.014313240942223169
-0.019252015666232938 0.012168629730621288 -0.021740170933088974
-0.01690949970694669 0.0046852896362227425 -0.02956175724381299
-0.009368419560644568 0.01631763483851051 -0.036523089054473226
0.00118740654636523 -0.0022910228634367906 -0.0036221665608200245
0.00751410053488671 -0.018669464008002234 0.014141661655302597
0.006436618081816309 -0.008242013927753183 -0.003130413134903747
-0.008295041596277912 -0.009633013600192348 -0.02039445165542774
0.01612991154143484 0.010002240688188217 -0.03176503440079783
0.018922588115388782 -0.015458591212424206 0.008910505318987483
0.019113660408690857 0.00999489959220678 -0.024328872481690064
0.022435971936749247 -0.03078607681293505 0.005577107990515656
0.014125828747380336 -0.01361758635505128 0.017569174275260797
0.021026912327669265 -0.028939262161726736 0.007365577702463298
0.030433550554606552 -0.01790317141824855 0.012591726590563027
0.02165085669035287 0.0018426626523011672 0.015083687031409587
0.01519821045728835 0.003936860283696185 0.0067590884390382805
0.00499243890831869 0.025330538808748117 0.009227483279306184
0.023461421581535663 0.023765307360809763 -0.0023885809926132073
0.0009027218371458569 -0.010829557775871794 -0.005477238797391052
0.0004960118134335103 0.011160101491919315 0.020358869160333817
0.0075124331795742875 0.014764726927836109 0.021988322381443767
0.0003322896958693372 0.0038636148393855346 0.022011130704711623
0.03530061870110614 0.011702435331246847 -0.010558146684766746
0.03478178333451442 0.001769647733390836 -0.016019910630155745
0.028729021969455374 0.00733691210387672 -0.007970855379407244
0.00915974175908796 0.009667620684532684 0.001590185273625965
-0.005457462396281833 0.004715137901753662 0.002372741268988305
0.028929826185274572 -0.03495199231649908 -0.024996401676111685
0.05158957878667924 -0.04947292211947334 -0.033756539848688615
-0.05961486086035083 0.006352095642682208 -0.006075140773832695
0.001282338516079932 -0.005108570135148104 0.019484475080808722
-0.001926643456722775 0.007419402104644099 -0.003664099539940247
0.0182792432452369 0.016430110085697797 -0.013944060141417105
0.011595569000680072 -0.04240922655461359 0.005402475551557246
-0.010602789016616017 0.002692822414174074 -0.02274684016398541
-0.019788230455622134 -0.003889721144259012 -0.016016703241665625
0.06551832792289673 0.019429084656163487 0.005403252745216874
0.0741098133901835 0.033814776036465925 0.00973823348729019
0.031309236281136174 -0.0029737963256124583 0.019346333642349032
0.056669451128379726 0.0016474186692216808 0.015297103574805725
0.014969074289800004 -0.012404789880766705 0.02892242273851093
0.02827785647392066 -0.029802108643305472 0.04646356596802868
0.0298136886460679 -0.004057715743870645 0.025662558642421722
0.022134023290279276 0.0016475329676553007 0.03886901006159599
-0.01201457842909672 0.0020517207994592847 0.03796248817821792
0.03900341295146332 -0.007552571906146571 0.0017970755114068088
0.033264140846114114 -0.030769795488858925 0.02784220012015126
-0.005207838797582262 -0.017283628062761437 0.01712658977694573
-0.013886785298211942 -0.005799097289090383 0.0025688327761552747
-0.014838031400143501 0.02136126860118471 0.04080094108478058
-0.00991739604996911 -0.002199185748666031 0.0431173049753954
0.03019320450263161 0.006752626124659351 -0.01597070498310764
-0.05698794895411765 -0.013600637537770143 0.028677012171706092
0.023377146767469485 -0.03679951717642009 0.018466017414213977
-0.005121784998809155 0.03489368952690546 0.03589060947941974
-0.02990231044998317 0.011463022163073057 0.006651189118574678
0.016621340621251555 -0.009684377871465913 0.002511520583093889
0.028259479278408002 0.01956534893543119 -0.00034520656935416784
-0.024708573056855657 -0.019448273738508357 0.017334344517688532
0.016085134036367514 0.01763548484093276 0.0040628790835255816
-0.028248102714883296 0.026122891929945196 0.0083640398504851
0.015313654443476309 -0.033850213321491886 0.0012197961963486968
0.0024526316582516943 -0.012827111507672365 -0.027148832284723454
0.002007328692600714 0.011972731049914252 -0.001165335332482123
0.0156251336240831 0.0035844554451961476 0.0006265816558518059
0.002001829028015012 -0.015476551014892205 -0.028995296928213718
-0.061886175953201054 -0.015779565762922255 -0.019477797983169277
0.0371019633370264 -0.00013310352459952599 -0.007135504507606294
0.031408759313756036 -0.054843291287114515 -0.03565653846573689
-0.02020928984587854 -0.011740477024167154 -0.01998384953816643
-0.019648553925246892 -0.029381316867484682 -0.002147499072477013
-0.0707605605164556 -0.003468315292568112 0.007945551638370293
0.03206951933578318 -0.02878149833750803 -0.026796360811648
0.041173695471471185 -0.03909826077902677 -0.023977295322591963
-0.013518047724038754 0.012388716987537386 -0.013840336745502125
-0.03582030925140716 -0.010790006065205112 -0.010189506279614886
-0.04299586290118468 0.011390617825173003 -0.016246952982047418
0.01839313019694873 0.0037592745813363826 -0.001899297444036452
-0.0153800226452162 0.009833795123079733 0.00362966968416222
0.004948063395886465 0.012712431276128809 0.022922787999180596
0.010324766575696713 -0.007955960484376728 0.0014007667095456368
-0.021578025484574062 0.022416090663541402 0.029362659110249746
-0.05297251752081754 -0.014907853023662949 0.005077018803540337
-0.0550608962711743 -0.017394496345199118 0.00843772929516612
-0.0545403600407575 -0.007559694134819038 0.031334616119622745
0.005978940360137035 0.016206139360996945 -0.032413960852646174
0.0030825867011832395 -0.00031756145932497807 0.021949425668277883
-0.013942501066243396 0.006962304535807354 -0.01758783373478555
-0.03882396646378208 0.024712062384320034 -0.019713115113113695
0.011307876308389952 0.041927746444862656 -0.012993682068061434
0.025889641440726082 0.049708734718440964 -0.007763789666567263
-0.0008140505398391141 0.025464592965261542 -0.011906637946348265
0.015485562262052567 -0.012618099573972698 -0.03187423380197285
0.013614648503848897 0.007778607225715547 -0.0025103263013005017
0.01738028672628083 -0.00203006109278598 -0.0075510313057015445
0.00017442193404867883 -0.010322307091218851 0.011821544315154482
-0.009927135628099238 0.003427042995958957 0.017650445991861687
0.0024818736957666976 -0.0064782599074152914 0.0116740493842899
0.008426892227267252 -0.017535571797788516 -0.003063643050711148
0.027311173223711724 0.0026489360254430775 0.0008745346084540015
0.02780913613172258 -0.01403244796976847 0.008660489581858015
0.0008636101375805753 -0.015929023076384923 -0.005716498052258664
0.009806038831153347 0.016994654076513748 0.010862739976982476
-0.02175587379144225 0.02823913037142231 0.0005704633303903118
-0.011349281609359232 0.00848335925450427 -0.012084148108634445
0.014293519253590532 0.028030050947913224 0.012896891541311687
0.013476533999247267 0.010647996710824049 0.006761284978113464
0.006882226067035012 0.018552595153633653 0.02264878145173502
0.013285860744439229 -0.010785706149439567 -0.026770903837987043
0.0016612688431197297 -0.0020516292031937705 -0.011359981513452798
-0.028039449584427938 0.006482707509306218 0.0028107929387813403