# vtk DataFile Version 2.0
Really cool data
ASCII
DATASET UNSTRUCTURED_GRID
POINTS 584 double
-1.0 0.0 0.0
-0.9600374798207896 -0.027590413451835553 0.04
-0.9589620457797374 -0.028177574718636023 0.0
-0.9553815213922792 0.019675326217199102 0.04
0.6719637381218919 0.02110482676547816 0.0
0.6414775595248179 0.020020515529780993 0.04
0.6571281419012174 0.06 0.0
0.6240641012293764 0.022292119262118645 0.0
0.687851041884645 0.021313940245698455 0.04
0.7030120427199962 0.06 0.04
0.657128141901218 0.06 0.04
0.7030120427199952 0.06 0.0
0.6885310613992013 -0.0196061899732657 0.0
0.6720046167250797 -0.020579604775701428 0.04
0.6407079554435648 -0.019738458112036637 0.0
0.7171469290115033 0.021165332718839136 0.0
-0.7921016077200962 -0.06 0.04
-0.7604373514312079 -0.019298436119384588 0.0
-0.7479973317145423 -0.06 0.04
-0.7479973317145417 -0.06 0.0
0.7030120427199962 -0.06 0.0
0.7030120427199952 -0.06 0.04
0.6571281419012174 -0.06 0.04
0.7479973317145417 -0.06 0.04
0.7325903506195701 -0.020274227246539274 0.0
0.7176321617908783 -0.019839353713154383 0.04
0.7604373514312079 -0.019298436119384588 0.04
-0.8488906624897727 0.019856366527450334 0.04000000000000001
-0.8052789150181434 -0.019306901564895652 0.0
-0.805541091654972 0.020469431563422978 0.04000000000000001
-0.8203038938742353 -0.020636147377884773 0.04
0.897529295217204 0.022569895749215793 0.0
0.8488906624897727 0.019856366527450334 0.0
0.8569454102823642 0.029774901726562965 0.04
0.8777357995360431 0.06 0.0
0.9553815213922792 0.019675326217199102 0.0
0.95349853104827 0.02147987272312249 0.04
0.9103536180674616 -0.021283841161765512 0.0
-0.5450807564691462 -0.01715484187473429 0.04000000000000001
-0.5372746904547943 0.02439300391790418 0.04
-0.49049502097572617 0.000359712426279548 0.04000000000000001
-0.5409244119327052 -0.005150142234760652 0.0
-0.48901428549955095 -0.02776609156780287 0.019771763033692314
-0.4642419910175897 -0.06 0.04
-0.43891524330526177 8.673617379884035e-17 0.04000000000000001
0.7479973317145423 -0.06 0.0
0.9600486361512215 0.06 0.04
1.0 0.06 0.04
1.0 0.06 0.0
0.9192992165657531 0.06 0.0
0.7479973317145423 0.06 0.04
0.7309057796957548 0.02177174945441851 0.039999999999999994
0.7479973317145417 0.06 0.0
0.7613659684934695 0.020945326906433456 0.0
0.7736855084518748 0.020914979208800512 0.04
-0.8570647961856006 -0.015388027432140593 0.0
-0.8569454102823642 0.029774901726562965 0.0
-0.8649535140731797 -0.02016838668923704 0.039999999999999994
-0.1726925416005594 -1.214306433183765e-16 0.039999999999999994
-0.22806385632140147 1.0755285551056204e-16 0.039999999999999994
-0.2006519843784229 0.06 0.0
-0.22806385632140147 -1.1796119636642288e-16 0.0
0.438611990705585 -5.252150912499892e-05 0.04
0.41358849559293387 -0.06 0.04
0.4135884955929341 -0.06 0.0
0.4642419910175897 -0.06 0.0
0.4782715374234063 0.0302584611690398 0.019894876072988572
0.513903464641242 0.06 0.0
0.49049502097572617 0.000359712426279548 0.0
0.46424199101758934 0.06 0.0
0.46424199101758934 -0.06 0.04
-0.8164681441220105 0.022269284396602723 0.0
0.48912437490067595 -0.00041996788971368666 0.04
0.4642419910175897 0.06 0.04
-0.8353421249080566 0.06 0.04
0.8649535140731797 -0.02016838668923704 0.0
0.8973163514988121 0.02144006532192878 0.04
0.5625923446839085 0.06 0.04
0.6103276788742331 0.06 0.0
0.5943416245309461 0.018901239582525348 0.04
0.5790918012159274 0.021628695864523574 0.0
-0.593631917725493 -0.01946781888421301 0.04
-0.6103276788742336 -0.06 0.04
-0.6407079554435648 -0.019738458112036637 0.039999999999999994
-0.6264545933043166 -0.021459100211208025 0.0
-0.6103276788742331 -0.06 0.0
-0.6103276788742336 0.06 0.0
-0.6240641012293764 0.022292119262118645 0.04
-0.6414775595248179 0.020020515529780993 0.0
-0.5943416245309461 0.018901239582525348 0.0
-0.5790918012159274 0.021628695864523574 0.04000000000000001
-0.5625923446839077 0.06 0.04
-0.6103276788742331 0.06 0.04
-0.5625923446839085 0.06 0.0
-0.7325903506195701 -0.020274227246539274 0.039999999999999994
-0.7176321617908783 -0.019839353713154383 0.0
-0.7309057796957548 0.02177174945441851 0.0
-0.7736855084518748 0.020914979208800512 0.0
-0.7613659684934695 0.020945326906433456 0.04
-0.6571281419012174 0.06 0.04
-0.6719637381218919 0.02110482676547816 0.039999999999999994
-0.7030120427199952 0.06 0.04
-0.687851041884645 0.021313940245698455 0.0
-0.029521960903255984 -0.06 0.04
-0.05860957814939871 -6.938893903907228e-17 0.039999999999999994
-0.05860957814939863 5.898059818321144e-17 0.0
-0.08769719539554167 -0.06 0.0
-0.08769719539554144 -0.06 0.04
-0.2823507532564078 -5.204170427930421e-17 0.04
-0.25547572826437986 0.06 0.04
-0.25547572826438003 0.06 0.0
0.38751191920162714 6.938893903907228e-18 0.0
0.3352618020299945 -3.469446951953614e-18 0.0
0.36192316205531716 0.06 0.04
0.3619231620553172 0.06 0.0
-0.36192316205531716 0.06 0.0
-0.335244821032008 -1.1796296425746478e-06 0.0
-0.3352618020299945 -3.469446951953614e-18 0.039999999999999994
-0.38745316199969926 -7.894682722445895e-06 0.0
-0.3619231620553172 0.06 0.04
-0.3092257782484355 0.06 0.04
0.28235075325640757 5.551115123125783e-17 0.039999999999999994
0.30922577824843556 -0.06 0.0
0.335244821032008 -1.1796296425746478e-06 0.04
0.3092257782484355 -0.06 0.04
0.36192316205531716 -0.06 0.0
0.38745316199969926 -7.894682722445895e-06 0.04
0.3092257782484355 0.06 0.0
-0.38751191920162714 6.938893903907228e-18 0.04
-0.28235075325640757 5.551115123125783e-17 0.0
-0.30922577824843556 0.06 0.0
0.6103276788742336 -0.06 0.0
0.593631917725493 -0.01946781888421301 0.0
0.6264545933043166 -0.021459100211208025 0.04
0.4889627886584896 -0.027603176797077415 0.020155725176282127
0.583287522480325 -0.023728770665855194 0.039999999999999994
0.5450807564691462 -0.01715484187473429 0.0
0.5409244119327052 -0.005150142234760652 0.04
-0.48912437490067595 -0.00041996788971368666 0.0
0.3619231620553172 -0.06 0.04
-0.657128141901218 0.06 0.0
0.9600374798207896 -0.027590413451835553 0.0
1.0 0.0 0.04
0.9589620457797374 -0.028177574718636023 0.04
0.5625923446839077 -0.06 0.04
0.5625923446839085 -0.06 0.0
0.7766984080639845 -0.02052537972713625 0.0
-0.438611990705585 -5.252150912499892e-05 0.0
-0.583287522480325 -0.023728770665855194 0.0
-0.9600486361512215 0.06 0.0
-0.95349853104827 0.02147987272312249 0.0
-0.9192992165657539 0.06 0.0
-0.9192992165657531 0.06 0.04
-1.0 0.06 0.0
-0.14473309882269625 -0.06 0.04
-0.14473309882269605 -0.06 0.0
-0.11621514710911887 -1.214306433183765e-16 0.0
-0.17269254160055947 1.1796119636642288e-16 0.0
-0.14473309882269625 0.06 0.0
-0.11621514710911884 1.214306433183765e-16 0.039999999999999994
-0.8353421249080566 -0.06 0.0
-0.8353421249080575 -0.06 0.04
-0.8973163514988121 0.02144006532192878 0.0
-0.897529295217204 0.022569895749215793 0.04
0.11621514710911887 -1.214306433183765e-16 0.039999999999999994
0.05860957814939871 -6.938893903907228e-17 0.0
0.05860957814939863 5.898059818321144e-17 0.039999999999999994
0.08769719539554144 0.06 0.04
0.6103276788742336 0.06 0.04
0.5139034646412424 -0.06 0.0
0.9096368506350345 -0.020963842829632554 0.04
0.805541091654972 0.020469431563422978 0.0
0.8052789150181434 -0.019306901564895652 0.04
0.8203038938742353 -0.020636147377884773 0.0
0.08769719539554144 -0.06 0.0
0.08769719539554167 -0.06 0.04
0.9192992165657531 -0.06 0.04
0.8164681441220105 0.022269284396602723 0.039999999999999994
-0.9103536180674616 -0.021283841161765512 0.04000000000000001
-0.8777357995360431 -0.06 0.0
-0.9096368506350345 -0.020963842829632554 0.0
0.8570647961856006 -0.015388027432140593 0.04
0.7921016077200956 -0.06 0.04
0.8353421249080566 -0.06 0.04
0.7921016077200962 -0.06 0.0
0.4135884955929341 0.06 0.04
0.43891524330526177 8.673617379884035e-17 0.0
-0.7921016077200956 -0.06 0.0
-0.08769719539554144 0.06 0.0
0.14473309882269605 0.06 0.0
0.1726925416005594 -1.214306433183765e-16 0.0
0.11621514710911884 1.214306433183765e-16 0.0
-0.029521960903255984 0.06 0.0
0.0 0.0 0.0
0.17269254160055947 1.1796119636642288e-16 0.04
0.14473309882269625 0.06 0.04
0.0 0.0 0.04
0.2006519843784229 0.06 0.04
0.22806385632140147 -1.1796119636642288e-16 0.04
0.22806385632140147 1.0755285551056204e-16 0.0
-0.6720046167250797 -0.020579604775701428 0.0
-0.7030120427199962 -0.06 0.04
-0.7030120427199952 -0.06 0.0
0.25547572826438003 0.06 0.04
0.30922577824843556 0.06 0.04
0.25547572826437986 0.06 0.0
-0.02952196090325599 0.06 0.04
0.2006519843784232 -0.06 0.04
0.14473309882269605 -0.06 0.04
0.2006519843784229 -0.06 0.0
0.14473309882269625 -0.06 0.0
0.2823507532564078 -5.204170427930421e-17 0.0
-0.36192316205531716 -0.06 0.04
-0.41358849559293387 -0.06 0.0
0.5372746904547943 0.02439300391790418 0.0
0.5139034646412424 0.06 0.04
-0.5139034646412424 -0.06 0.04
0.41358849559293387 0.06 0.0
-0.7171469290115033 0.021165332718839136 0.04
-0.7479973317145417 0.06 0.04
-0.7030120427199962 0.06 0.0
0.08769719539554167 0.06 0.0
0.029521960903255984 -0.06 0.0
-0.02952196090325599 -0.06 0.0
0.02952196090325599 -0.06 0.04
0.02952196090325599 0.06 0.0
0.029521960903255984 0.06 0.04
-0.47805793986482265 0.03008719549728311 0.01940109733029794
-0.4642419910175897 0.06 0.0
0.6103276788742331 -0.06 0.04
1.0 -0.06 0.04
0.9600486361512205 -0.06 0.04
0.9600486361512215 -0.06 0.0
-0.3092257782484355 -0.06 0.0
0.877735799536044 -0.06 0.0
0.8777357995360431 -0.06 0.04
-0.41358849559293387 0.06 0.04
-0.4135884955929341 0.06 0.0
1.0 -0.06 0.0
1.0 0.0 0.0
-0.14473309882269605 0.06 0.04
-1.0 -0.06 0.0
-0.9600486361512215 -0.06 0.04
-1.0 -0.06 0.04
-0.7921016077200962 0.06 0.0
-0.9192992165657531 -0.06 0.0
-0.9600486361512205 -0.06 0.0
-0.7921016077200956 0.06 0.04
-0.7766984080639845 -0.02052537972713625 0.04
-0.5625923446839085 -0.06 0.04
-0.5625923446839077 -0.06 0.0
-0.877735799536044 -0.06 0.04
0.7921016077200962 0.06 0.04
-0.3619231620553172 -0.06 0.0
-0.7479973317145423 0.06 0.0
-0.8777357995360431 0.06 0.04
-0.4135884955929341 -0.06 0.04
-0.46424199101758934 -0.06 0.0
0.513903464641242 -0.06 0.04
-1.0 0.0 0.04
-0.877735799536044 0.06 0.0
-0.30922577824843556 -0.06 0.04
[...]
POINT_DATA 584
VECTORS displacement double
-0.005032453096629056 0.01421879573360939 -0.015527686329323765
0.01781247049038615 0.006511829116194037 -0.011332651507128304
0.021384307398857175 0.004683129351966881 -0.004650322456553909
-0.007180515822268755 0.005475047919601172 -0.0019787699144969786
0.0003972469135820385 -0.0313219549039192 0.0048272048978326475
-0.0037820660871393796 -0.012759516201203178 -0.007189592329392246
-0.0034908251682185905 -0.02410694518124114 -0.0058474680831176375
0.0025886113246485283 -0.0002248857536217594 -0.01442071040998614
-0.0073957470942827615 -0.018491515166463385 0.011515417551976145
-0.017962686825799903 -0.0019639658868791693 0.0086435255747873
-0.0076124879429843905 -0.006112123049597412 -0.009069517171970397
-0.014783397053360499 -0.016697779664760055 0.012041970445444177
0.017607298686544093 -0.026911340332240956 0.016819278509250964
0.011958726062931382 -0.015873037134524638 0.012626464415028935
0.013745068865517072 -0.014762241953199954 -0.008728425701870449
-0.0032889374893534883 -0.01810664835267366 0.023650956333288283
-0.012058238827658822 0.01729636101904677 -0.01741217982916767
0.0057625720755485 0.017893221260456504 -0.010974177022768598
-0.0049132023758984775 0.004201423905345414 -0.01863253199963186
-0.006939593533678661 0.025584277140436745 -0.02595143355119969
-0.008904403969068414 -0.01744297940256619 0.02840166566228981
-0.013531591814988904 -0.011887471585771612 0.02338917831209336
-0.019287322365341183 -0.00485209802965574 0.01391984419740629
-0.02635841543786119 -0.008904287249753114 0.007476324055652689
0.02583600960992032 0.006347063588836259 0.025360467373552367
0.016990087783395804 0.008594216709329175 0.019970550543245466
0.02690958112469042 0.023264817808733376 0.009700807907314537
-0.01887607828392004 0.005002378975931025 0.0029331345085154914
-0.00034833287749205875 0.017833993409690323 -0.004340351139657524
-0.01807127331126419 0.005750693935834599 0.0008753548095333532
0.0035932843596044816 0.009490184305863625 -0.0018772878195214096
-0.015401138308747547 -0.01827688739178228 -0.027656870246710152
0.0002978147641351073 0.004445897526129152 -0.005916942859027291
-0.0011806550599865098 0.027562988954451008 -0.020191015997212788
-0.001402939768196571 -0.001765980970101073 -0.03048915475258659
-0.028084937036191786 -0.011349130732436973 -0.020229789451482447
-0.011046032111047039 0.012901627731697306 -0.010607609930792487
0.005335902252147413 -0.02132688360495563 0.0021604844727857436
-0.009289952648631377 -0.008486940709761782 -0.02214665945949836
-0.0058867166888324 -0.001605328328596238 -0.02209903844347541
-0.017907431227052253 -0.0008409272467291674 -0.01794932450048992
-0.020090651840876914 -0.002578844039214299 -0.02630596236366267
-0.007901574400845523 0.005613460969792242 -0.02377268634866252
0.013467256739000446 0.01029163496524286 -0.014061253758637983
-0.0178794113790458 0.0016194371908555727 0.003473202085786272
-0.014542362864782233 0.005299223866759874 0.013209238809426668
-0.011452061224110596 0.04496614248063423 -0.02240108790154578
-0.039837791399647514 -0.004793748453118395 -0.03288583735734377
-0.05896270578824398 -0.053004261184734995 -0.07101398038892923
-0.00416104602909103 -0.020627085656572664 -0.04316427228403313
-0.04029612362390949 0.0211029267655928 0.023993023155454384
-0.002391507207708178 -0.02014864926890254 0.019308466903029734
-0.037344179019164744 0.02905473427388848 0.03326054392052
-0.0031435250146180584 0.03778350453173302 0.023003934648507106
-0.0005674754027611193 0.030324762787623676 0.014730400940942195
0.008581936475504426 -0.013800292088758626 0.007691320407344658
-0.021988346374371432 -0.0022061629647552386 0.004150922193686312
0.012965202514590012 -0.012110155441271909 0.00791075327132922
-0.011239289963656104 0.00257987174300674 0.006921078607265043
-0.012985662793035192 0.002942831572094559 -0.010999741876959951
-0.0003828988370534177 -0.008966725040270008 -0.013903212044741377
-0.012626054217966845 0.009536511497274353 -0.01974650489193426
0.008566823313264773 -0.008875631460406269 0.01198102884982242
-0.013116486100675267 -0.01050595370859708 0.010093028045967716
-0.010376827274703581 -0.012268074963189964 0.011349168428149564
-0.014865005798129835 -0.025678505059005517 0.01560227378325489
0.015532772412305176 -0.00012624981841681825 0.015022765904005414
0.01167943338737295 0.027752652167421926 0.015842054048944395
0.007617023040655957 -0.002446807044877369 0.007895950599922494
0.01939814446665481 0.010174771607647118 0.02730337925489115
-0.01918439123396721 -0.019681445114690953 0.020613557404926968
-0.02262251233991757 0.012928120290269362 -0.002434873470697144
0.007729788631706007 -0.004821961816837187 0.002447115828287125
0.017584069738928627 -0.002837731264482409 0.018688800811547203
0.011045009554458442 0.0018886208488545918 0.0006530270275016077
0.016968999904664307 -0.03238837342875489 0.0017764377677148419
-0.0045306840224101355 0.008465462414844157 -0.02053022511336511
0.01824732553019174 -0.007004052420013379 -0.004359097362406378
0.00956225534897288 0.023381507722426146 -0.012430079918027926
0.00994465322761131 -0.0012173674281708313 -0.01684629757453377
0.00800949620811946 0.013973107714253212 -0.020637734203155834
-0.008512897561905444 -0.016554428136716308 -0.004841685653769657
-0.008200849992827825 -0.009969719996875464 0.00628452090370446
-0.0009965366389809455 -0.004201852932448042 0.012116352892837919
-0.0041319139306105835 -0.008354076520355564 0.00824116460623208
-0.006609492589147476 -0.01856232701660342 0.0073455498666468375
0.035161572795973324 0.014292074206154628 0.008560833772530559
0.006628232653133126 0.006851796367691982 0.005923096709920318
0.008496085149429684 0.00503730350859922 0.01612585877692556
-0.0004651658598994141 -0.003036167287487512 -0.0023281108278631166
0.00023008809765458864 -0.005619264175307497 -0.014293077993171888
0.019347786765185778 0.009882823860058952 -0.011759251567540102
0.03382314934919585 0.00874122504447515 0.008045974902437228
0.021294465481537586 0.01621878779138383 -0.007852717790126602
-0.0028526786957826897 0.013037921684715252 0.00197728101410247
0.005013296020351263 0.021502572641867352 0.003392585481836313
-0.0005476338552019324 -0.00020235434137793598 0.0022625309791721422
-0.01876925652027993 0.0009296843842000478 -0.0047808357350679
-0.017756597367753712 -0.00244701928444091 0.002745714872842344
0.035274732683071866 0.004774000476656797 0.01857374258023217
0.006949366937639977 -0.011791188207403203 0.01819808332626266
0.038593945594212545 -0.010602237155518784 0.009682522606570789
0.009659035674260711 -0.0028876847002050543 0.01787578636365052
0.022832776899220548 -0.0015024558360717565 -0.006262760228128071
-0.009694654374029343 0.0020019989238950066 0.004573471750942862
-0.007017024401262803 -0.00478578848368547 0.006409566047296801
0.028424878969073197 -0.012640098455685317 0.026736038125853158
0.030881249294618288 -0.00522191852797009 0.0289587269843183
-0.014660776611547672 0.004298638000998921 -0.00745065352183288
-0.0009989201706484313 -0.008356167564761647 -0.013048729236674363
-0.0036519115053727045 -0.006450357247428405 -0.017141062381741734
0.015059336966323986 0.005136527457778538 0.0034930817996266226
0.01827026771976125 0.008009408162687932 -0.015477533121185647
0.018409731768322404 0.007927144512869825 0.0011613146998299192
0.025647796221716233 0.01965768918294289 0.008904177857912171
-0.0028840534722341872 -0.010319596711758843 0.017260666418127114
-0.019259079069793895 -0.00746149268581113 0.011933543925632149
-0.015558136241881999 -0.005830693407075248 0.012259365537382454
-0.020242984571748234 -0.0074091997552010605 0.021264916328969343
0.0006240693708185232 -0.0037544972331962885 0.012173621186371133
-0.0009401165527627006 -0.002459602350222747 0.0005002706076806328
0.008910044287103128 0.0065251468684731995 -0.01761984500642682
0.012385533142528497 0.017247250380934533 -0.03374357482851673
0.013681578149283563 -0.00033356393135555376 -0.019902366497239716
0.0066209625213158076 0.0061567070231670126 -0.03672401206195254
0.006273938105710431 -0.02641816225431569 -0.01137917769700451
0.0037305805573632227 0.001971712475080148 -0.004419743057500324
0.02481885813451415 0.01974745398411706 -0.0008271601476859032
-0.018360623272857687 -0.005351345431882208 0.02115966088060528
-0.01988848288484573 0.0074627773170304855 -0.01078042521129015
-0.006976940459441306 -0.004065169195900501 -4.243541333808204e-05
-0.023399057170426094 0.015562454362590796 -0.02904255878607494
0.0069876089975456825 0.017314394216634017 -0.027956288850501793
0.009401780292496182 -0.005076368147936832 -0.011794296346689116
-0.008855917612930083 -0.008761880242687852 0.0058245013766258175
0.004941140169976142 0.01174342448184857 -0.02672371809379678
0.0015187061051877497 0.011907780770095286 -0.02230540872460772
0.0065439470558001705 -0.0014817003318530074 -0.01657648481036417
-0.02024121459514202 0.006435655865346692 -0.019122586418473867
-0.0008000509944405155 -0.03149312803897261 -0.00889284156744258
0.04301476531122697 0.001800545605152448 0.01535369788271183
0.0299736720250949 -0.02547238633634223 0.028641479936389425
0.005182139382288373 0.03498887395381669 -0.0035671630854739074
0.030164457083914874 0.009528254569123547 0.017651734870089607
-0.016687812828303564 0.009699757257542314 -0.03272399127919789
-0.021051524719553148 0.018722838932302505 -0.03387848906902183
0.02213954299288196 0.029101834315485048 0.01752390507052441
-0.01715649852183999 0.00540419230302843 0.005188138927126059
-0.014276579156536113 -0.01931675880321861 -0.011165951353616286
0.006615249750667043 -0.0174279368627494 -0.010394547096611204
-0.008410243557171458 0.0011962693345198183 -0.005793164475286276
0.01651764433660554 0.0013162871799673197 -0.00517033162216663
0.02653190778827346 0.017981429511845393 -0.0032419667538153155
-0.011740861522618225 -0.008807441498656277 -0.009268473458200954
0.032436831464370666 -0.0007927849781268953 0.025680467208845644
0.036074312409535896 -0.005950558619535581 0.025832250729827082
-0.006890278693370719 -0.009768620114636544 0.02311922942551114
-0.0066199788709657365 -0.003389231383920097 0.0036399548351033037
-0.00020976632859583512 -0.015608905396687616 0.0023261248529453885
-0.008847401690657924 0.0036460450130317824 0.020443789429796515
-0.018403090796892653 -0.006016399613077377 0.002651790965036103
-0.015325595954798113 -0.0070866801821539895 0.0010011759244674084
-0.011029946207977781 -0.015031389439058351 0.0017685152645963774
-0.015691569808543398 -0.014125234127358114 0.004381851426162206
-0.007032451128327345 -0.004510511002006318 0.014171515927829847
-0.004900741167699902 0.009730374735532676 -0.016833278703769102
-0.009101937895777686 0.00705759799378585 -0.01387855570697868
0.00668014673750817 -0.0035252515883256075 -0.006593374216418449
0.004201412971354813 0.026980810485711288 -0.01138938345230834
-0.020670076848812797 0.0034914455133723053 -0.006354883343268636
0.008721677415766873 -0.011663205100510134 -0.00236779787878095
0.0005393308873452074 0.021912987105546414 0.005770157190900321
0.021367286553451884 0.005020502026672683 -0.006194413206629361
0.017850471950226807 -0.0013308633712925174 0.005368585082180591
0.013020093143458738 0.007131821682188265 -0.003699942111377689
0.01015316241122618 0.006512233407429057 -0.003182622042622441
-0.016871303157030823 0.05712404682893614 0.01321098698976579
0.002612572860824473 0.010849571910209946 -0.003426371252743661
0.017754284419448537 0.0003880044380228586 0.00808205515334434
-0.019049090589948588 -0.02862216289629024 0.019705539631975192
0.019520134575978645 -0.012454019413346612 0.00874222012899155
0.022288962832243294 -0.00636944838689618 -0.01651655581415385
-0.041056616774647885 -0.015019320473214522 -0.003757621998689157
-0.03930611814496727 -0.012468027851939623 -0.00171508073652047
-0.030227523707728486 0.004567194574508351 6.390473295454775e-05
0.020651939270265735 0.006101868646516508 0.014528368955143643
0.012937416904340375 -0.007899740448003038 0.017381414587792784
-0.018837472917889658 0.02537407757974062 -0.01429880635716236
0.0005465285977521569 -0.009814347749020545 0.0020611830674445377
0.012433020323638258 -0.022613120143876415 0.007843610133256096
-0.0004070226238744229 -0.009710899916204078 0.024386756289196045
-0.0012074322954765762 -0.010710592858879004 0.010164272492220796
0.000680809894576394 -0.0007508831623263298 -0.013501492648623865
-0.006995405890832022 0.009470273650554173 -0.018545456279503075
-0.006356483619067965 -0.0011335607346378634 0.02813455246725074
0.005787454653463157 -0.009714763619172168 0.010037342868442605
-0.00965384474349526 0.008123865212003775 -0.017200997390472296
0.009415219640508947 -0.010960712505202771 0.012152523667655311
0.0057325107047515285 -0.00833213037346916 0.009508353546025033
0.009524466706918474 -0.004916967902661211 0.010789667172107428
0.0008775433234310822 0.011955496018048076 0.015406006922388313
-0.01032402202218637 -0.0015143251340863971 -0.0010945380051576505
-0.008775242653400182 0.016334146636076675 -0.005517681643326409
0.01035038311347581 0.0025942943714768324 -0.0022487825128313915
0.019735033219613552 0.004547661096902524 -0.004047754399448851
0.016560527201659302 0.010231519952349834 0.007335269954947214
-0.0006918395180076576 -0.0037630335722086705 -0.006789799989763193
0.009195366490983565 0.019541966625587926 0.018404476035217724
0.006474507492242858 -0.006567560567077346 0.030053448151077165
0.011276838224092017 0.015627987983680636 0.022805870291997602
0.011211836771114762 -0.01011069400055712 0.02855856847338386
0.012627799986281473 0.020288697008978496 -0.015170262263646365
0.022934894091139968 0.00034032582430742087 0.022033036818869544
0.018146812218657382 -0.003653775371198945 0.01606305664156362
0.004858450076183552 0.015839986006894062 -0.0038020965334566725
0.015534505540814748 0.016556920405666718 0.003812670730898703
0.013624579557047854 0.0035159714748919453 -0.025375824638566736
0.025207822650612964 0.013824953751792022 0.02371872529256262
-0.005945435287205808 0.0033229427438853537 0.015331521803951214
0.024712223695891888 -0.0340846496629772 -0.002407302496391542
0.0460533058006009 -0.013075974554856894 0.008622500077534076
0.01191790164635527 -0.00794511044512413 -0.012718574943618555
0.01704740066098975 0.00814529267649987 -0.026246508022613278
0.02269420250551719 -0.0028632100069036575 -0.004908765458313209
0.016236031645272726 0.004756042326951638 -0.026176217568498847
0.004743451407521645 0.00295707912193974 -0.019829959052038666
0.0017434779935656568 0.0011742934089423239 -0.016634131088034278
-0.009077345277067807 0.004702907582655949 -0.010441585241292316
0.008962968595441314 0.011324152899893417 0.003369480734349132
-0.02323463316322342 0.010810092719345259 -0.02355168479334846
-0.007037554438119136 -0.008154012248482589 0.027032212471682925
-0.012138191173169778 -0.00781987682045333 0.04505049819755129
0.002574722713133578 -0.03431916148188503 0.05688151004216479
0.023154018294660114 0.0028657315190077806 -0.005336910577291301
-0.030588634107865952 -0.060789149092699744 0.025205574841191604
-0.044714462613167284 -0.0382974030618628 0.012270093342506913
0.0024131192641735294 -0.0006531301440328545 0.018710722874037217
0.00162999883389143 0.0007751542378204795 0.016052713695740177
0.023749815549385784 -0.03542994107122773 0.06656231456757743
-0.007650695519788448 -0.006808481602247169 -0.012948449310920896
-0.000524732009053237 -0.009112017912407882 0.007981371105671679
0.03933290130125065 0.044467150803540856 -0.01424051260125797
-0.0033338177235599834 -0.05526545126300514 -0.019085039578788324
0.022564668070602513 0.05392526954787985 -0.030545934235540292
0.012002019175260304 -6.234410700661056e-06 -0.002763797102563467
-0.021229642876810863 -0.005960921222556204 0.018856833463681687
0.008930796766387444 -0.023543393214190366 0.0029537609997023996
0.015931408476039067 -0.006294014430238526 -0.0011765896882656472
0.004798789908675617 0.0023144188003830345 -0.0050488476873563615
0.006122025565480546 0.004903188462004323 -0.007468870726315839
0.0018253474661845282 -0.0048555669458161775 -0.017378492169480293
-0.02174113230678253 -0.016142569220382746 0.018741545746486437
-0.02535742689238351 0.0073116871786663845 0.016367279179423072
0.019348544555506258 0.0006648653370070749 0.018204535624975468
0.02533161826292461 -0.02465196571846013 0.0001875746143902393
0.00840946309493243 0.0027687899915880758 0.0034633452471048657
0.01646862475063614 -0.004351790978459799 0.013308224807073991
0.014805530466048789 0.014238245712293833 -0.015170924456778785
-0.018345077508253944 0.003974769719269998 -0.004986560947275276
-0.004450104783608315 -0.003059026302726288 -0.0038933195353495326
0.0029059089766511315 -0.002258757399048704 0.004005387178708566
0.027831066502162105 -0.001345984756677078 -0.002635985796084885
0.026236180007800605 0.010341722612437428 -0.02732094417464921
0.00010390001577875083 -0.003923659160959097 0.008078043196520635
0.014086291425897384 0.009184272118394126 -0.020688520784613775
0.02441697118255679 0.01963852296731595 -0.03102757950834144
0.010796949384052753 -0.03585619138750982 0.0017428420529187582
-0.03617266860919163 0.006169724248375366 0.011684763092138048
0.012429341018662061 0.013477281397003044 -0.011496826121471048
-0.008218996290796837 0.014342863223067798 0.013502604077685774
-0.02929010881299079 -0.006671914959594649 -0.05810467554625217
-0.012181391564007323 -0.014158674764104267 -8.635112299754486e-05
0.008675283517358695 0.007355105763820781 -0.014157127755558914
0.006088027513611993 -0.0036388585673922795 0.002342786498727456
-0.011758039886473894 0.007210863836655472 0.01118815187964033
0.015205395219509732 -0.010647791137388755 -0.026464877772687783
0.014256497443878755 -0.00017433154460787405 -0.022000114356230702
0.017034976912154984 -0.0002286493404795393 -0.01346119483644767
-0.02893416218249665 -0.02329699077360202 0.011827984218275113
0.007613419873340177 0.005134085125942445 -0.03349158602661979
-0.0009274190069599361 -0.007558554842827435 -0.008398270275346462
0.001444116842562337 0.003983070754318354 0.0016775225253598963
-0.023509836295219234 0.0006277172982507918 -0.01605794195307831
-0.019529111333274344 -0.011548649052872425 -0.0062673055766765354
-0.029287304162512233 0.02223432181219397 0.017626530819074764
-0.012111092260595544 0.0004977132635807922 0.041615611194139764
0.009290027686033988 0.011972928165279178 -0.00015942620449022
-0.015493007232412473 0.0019967712793292547 0.009234158449746085
-0.015968389785635865 -0.01585123011204705 0.009045253017860449
0.027572973251724035 0.011058630652065339 -0.013418460400358873
0.03424091379699235 0.013102522490409142 -0.008373899571085608
0.017209223953468585 -0.020602828051767025 0.009696118823675865
-0.010648751702417403 0.021500496851860854 0.004853059565469734
0.005648671691241949 -0.017794418209106145 -0.001075833790909661
-0.003374997753309 -0.022622382769353685 -0.0010273825069318644
0.0052413856974799595 0.0007020047361296577 -0.0019676579907899412
-0.00851456194986838 0.0030030041507941906 0.01675625785102243
-0.00830399282128888 -0.006532900767601698 -0.001056871927129467
-0.009400504021819654 0.008282652484396169 -0.000419443447294203
0.02907346083434367 -0.011673331919166993 -0.024068328470498987
0.02725294912816814 -0.012037173711900778 -0.013667050353894757
-0.012782010126415055 -0.000261616990830553 -0.00903109780931644
-0.006520562216862645 -0.005885933990274275 -0.011158924944203258
-0.015615869374999087 0.018853736045197068 -0.0019988421494139246
-0.014491098332802856 -0.0020901918151188968 0.004184217153937067
0.007332698450107449 0.00237988291887205 -0.010434891447217192
-0.01704344747341636 -0.011331120555177699 -2.209884233897241e-05
-0.0027433230888250977 -0.014205949142898229 0.0016280440882713982
-0.0022381891130640675 0.004134771801973434 0.012232044024010635
0.008044601533076812 0.003999536794701326 0.0036192138983811573