# vtk DataFile Version 2.0
Really cool data
ASCII
DATASET UNSTRUCTURED_GRID
POINTS 584 double
-1.0 0.0 0.0
-0.9600374798207896 -0.027590413451835553 0.04
-0.9589620457797374 -0.028177574718636023 0.0
-0.9553815213922792 0.019675326217199102 0.04
0.6719637381218919 0.02110482676547816 0.0
0.6414775595248179 0.020020515529780993 0.04
0.6571281419012174 0.06 0.0
0.6240641012293764 0.022292119262118645 0.0
0.687851041884645 0.021313940245698455 0.04
0.7030120427199962 0.06 0.04
0.657128141901218 0.06 0.04
0.7030120427199952 0.06 0.0
0.6885310613992013 -0.0196061899732657 0.0
0.6720046167250797 -0.020579604775701428 0.04
0.6407079554435648 -0.019738458112036637 0.0
0.7171469290115033 0.021165332718839136 0.0
-0.7921016077200962 -0.06 0.04
-0.7604373514312079 -0.019298436119384588 0.0
-0.7479973317145423 -0.06 0.04
-0.7479973317145417 -0.06 0.0
0.7030120427199962 -0.06 0.0
0.7030120427199952 -0.06 0.04
0.6571281419012174 -0.06 0.04
0.7479973317145417 -0.06 0.04
0.7325903506195701 -0.020274227246539274 0.0
0.7176321617908783 -0.019839353713154383 0.04
0.7604373514312079 -0.019298436119384588 0.04
-0.8488906624897727 0.019856366527450334 0.04000000000000001
-0.8052789150181434 -0.019306901564895652 0.0
-0.805541091654972 0.020469431563422978 0.04000000000000001
-0.8203038938742353 -0.020636147377884773 0.04
0.897529295217204 0.022569895749215793 0.0
0.8488906624897727 0.019856366527450334 0.0
0.8569454102823642 0.029774901726562965 0.04
0.8777357995360431 0.06 0.0
0.9553815213922792 0.019675326217199102 0.0
0.95349853104827 0.02147987272312249 0.04
0.9103536180674616 -0.021283841161765512 0.0
-0.5450807564691462 -0.01715484187473429 0.04000000000000001
-0.5372746904547943 0.02439300391790418 0.04
-0.49049502097572617 0.000359712426279548 0.04000000000000001
-0.5409244119327052 -0.005150142234760652 0.0
-0.48901428549955095 -0.02776609156780287 0.019771763033692314
-0.4642419910175897 -0.06 0.04
-0.43891524330526177 8.673617379884035e-17 0.04000000000000001
0.7479973317145423 -0.06 0.0
0.9600486361512215 0.06 0.04
1.0 0.06 0.04
1.0 0.06 0.0
0.9192992165657531 0.06 0.0
0.7479973317145423 0.06 0.04
0.7309057796957548 0.02177174945441851 0.039999999999999994
0.7479973317145417 0.06 0.0
0.7613659684934695 0.020945326906433456 0.0
0.7736855084518748 0.020914979208800512 0.04
-0.8570647961856006 -0.015388027432140593 0.0
-0.8569454102823642 0.029774901726562965 0.0
-0.8649535140731797 -0.02016838668923704 0.039999999999999994
-0.1726925416005594 -1.214306433183765e-16 0.039999999999999994
-0.22806385632140147 1.0755285551056204e-16 0.039999999999999994
-0.2006519843784229 0.06 0.0
-0.22806385632140147 -1.1796119636642288e-16 0.0
0.438611990705585 -5.252150912499892e-05 0.04
0.41358849559293387 -0.06 0.04
0.4135884955929341 -0.06 0.0
0.4642419910175897 -0.06 0.0
0.4782715374234063 0.0302584611690398 0.019894876072988572
0.513903464641242 0.06 0.0
0.49049502097572617 0.000359712426279548 0.0
0.46424199101758934 0.06 0.0
0.46424199101758934 -0.06 0.04
-0.8164681441220105 0.022269284396602723 0.0
0.48912437490067595 -0.00041996788971368666 0.04
0.4642419910175897 0.06 0.04
-0.8353421249080566 0.06 0.04
0.8649535140731797 -0.02016838668923704 0.0
0.8973163514988121 0.02144006532192878 0.04
0.5625923446839085 0.06 0.04
0.6103276788742331 0.06 0.0
0.5943416245309461 0.018901239582525348 0.04
0.5790918012159274 0.021628695864523574 0.0
-0.593631917725493 -0.01946781888421301 0.04
-0.6103276788742336 -0.06 0.04
-0.6407079554435648 -0.019738458112036637 0.039999999999999994
-0.6264545933043166 -0.021459100211208025 0.0
-0.6103276788742331 -0.06 0.0
-0.6103276788742336 0.06 0.0
-0.6240641012293764 0.022292119262118645 0.04
-0.6414775595248179 0.020020515529780993 0.0
-0.5943416245309461 0.018901239582525348 0.0
-0.5790918012159274 0.021628695864523574 0.04000000000000001
-0.5625923446839077 0.06 0.04
-0.6103276788742331 0.06 0.04
-0.5625923446839085 0.06 0.0
-0.7325903506195701 -0.020274227246539274 0.039999999999999994
-0.7176321617908783 -0.019839353713154383 0.0
-0.7309057796957548 0.02177174945441851 0.0
-0.7736855084518748 0.020914979208800512 0.0
-0.7613659684934695 0.020945326906433456 0.04
-0.6571281419012174 0.06 0.04
-0.6719637381218919 0.02110482676547816 0.039999999999999994
-0.7030120427199952 0.06 0.04
-0.687851041884645 0.021313940245698455 0.0
-0.029521960903255984 -0.06 0.04
-0.05860957814939871 -6.938893903907228e-17 0.039999999999999994
-0.05860957814939863 5.898059818321144e-17 0.0
-0.08769719539554167 -0.06 0.0
-0.08769719539554144 -0.06 0.04
-0.2823507532564078 -5.204170427930421e-17 0.04
-0.25547572826437986 0.06 0.04
-0.25547572826438003 0.06 0.0
0.38751191920162714 6.938893903907228e-18 0.0
0.3352618020299945 -3.469446951953614e-18 0.0
0.36192316205531716 0.06 0.04
0.3619231620553172 0.06 0.0
-0.36192316205531716 0.06 0.0
-0.335244821032008 -1.1796296425746478e-06 0.0
-0.3352618020299945 -3.469446951953614e-18 0.039999999999999994
-0.38745316199969926 -7.894682722445895e-06 0.0
-0.3619231620553172 0.06 0.04
-0.3092257782484355 0.06 0.04
0.28235075325640757 5.551115123125783e-17 0.039999999999999994
0.30922577824843556 -0.06 0.0
0.335244821032008 -1.1796296425746478e-06 0.04
0.3092257782484355 -0.06 0.04
0.36192316205531716 -0.06 0.0
0.38745316199969926 -7.894682722445895e-06 0.04
0.3092257782484355 0.06 0.0
-0.38751191920162714 6.938893903907228e-18 0.04
-0.28235075325640757 5.551115123125783e-17 0.0
-0.30922577824843556 0.06 0.0
0.6103276788742336 -0.06 0.0
0.593631917725493 -0.01946781888421301 0.0
0.6264545933043166 -0.021459100211208025 0.04
0.4889627886584896 -0.027603176797077415 0.020155725176282127
0.583287522480325 -0.023728770665855194 0.039999999999999994
0.5450807564691462 -0.01715484187473429 0.0
0.5409244119327052 -0.005150142234760652 0.04
-0.48912437490067595 -0.00041996788971368666 0.0
0.3619231620553172 -0.06 0.04
-0.657128141901218 0.06 0.0
0.9600374798207896 -0.027590413451835553 0.0
1.0 0.0 0.04
0.9589620457797374 -0.028177574718636023 0.04
0.5625923446839077 -0.06 0.04
0.5625923446839085 -0.06 0.0
0.7766984080639845 -0.02052537972713625 0.0
-0.438611990705585 -5.252150912499892e-05 0.0
-0.583287522480325 -0.023728770665855194 0.0
-0.9600486361512215 0.06 0.0
-0.95349853104827 0.02147987272312249 0.0
-0.9192992165657539 0.06 0.0
-0.9192992165657531 0.06 0.04
-1.0 0.06 0.0
-0.14473309882269625 -0.06 0.04
-0.14473309882269605 -0.06 0.0
-0.11621514710911887 -1.214306433183765e-16 0.0
-0.17269254160055947 1.1796119636642288e-16 0.0
-0.14473309882269625 0.06 0.0
-0.11621514710911884 1.214306433183765e-16 0.039999999999999994
-0.8353421249080566 -0.06 0.0
-0.8353421249080575 -0.06 0.04
-0.8973163514988121 0.02144006532192878 0.0
-0.897529295217204 0.022569895749215793 0.04
0.11621514710911887 -1.214306433183765e-16 0.039999999999999994
0.05860957814939871 -6.938893903907228e-17 0.0
0.05860957814939863 5.898059818321144e-17 0.039999999999999994
0.08769719539554144 0.06 0.04
0.6103276788742336 0.06 0.04
0.5139034646412424 -0.06 0.0
0.9096368506350345 -0.020963842829632554 0.04
0.805541091654972 0.020469431563422978 0.0
0.8052789150181434 -0.019306901564895652 0.04
0.8203038938742353 -0.020636147377884773 0.0
0.08769719539554144 -0.06 0.0
0.08769719539554167 -0.06 0.04
0.9192992165657531 -0.06 0.04
0.8164681441220105 0.022269284396602723 0.039999999999999994
-0.9103536180674616 -0.021283841161765512 0.04000000000000001
-0.8777357995360431 -0.06 0.0
-0.9096368506350345 -0.020963842829632554 0.0
0.8570647961856006 -0.015388027432140593 0.04
0.7921016077200956 -0.06 0.04
0.8353421249080566 -0.06 0.04
0.7921016077200962 -0.06 0.0
0.4135884955929341 0.06 0.04
0.43891524330526177 8.673617379884035e-17 0.0
-0.7921016077200956 -0.06 0.0
-0.08769719539554144 0.06 0.0
0.14473309882269605 0.06 0.0
0.1726925416005594 -1.214306433183765e-16 0.0
0.11621514710911884 1.214306433183765e-16 0.0
-0.029521960903255984 0.06 0.0
0.0 0.0 0.0
0.17269254160055947 1.1796119636642288e-16 0.04
0.14473309882269625 0.06 0.04
0.0 0.0 0.04
0.2006519843784229 0.06 0.04
0.22806385632140147 -1.1796119636642288e-16 0.04
0.22806385632140147 1.0755285551056204e-16 0.0
-0.6720046167250797 -0.020579604775701428 0.0
-0.7030120427199962 -0.06 0.04
-0.7030120427199952 -0.06 0.0
0.25547572826438003 0.06 0.04
0.30922577824843556 0.06 0.04
0.25547572826437986 0.06 0.0
-0.02952196090325599 0.06 0.04
0.2006519843784232 -0.06 0.04
0.14473309882269605 -0.06 0.04
0.2006519843784229 -0.06 0.0
0.14473309882269625 -0.06 0.0
0.2823507532564078 -5.204170427930421e-17 0.0
-0.36192316205531716 -0.06 0.04
-0.41358849559293387 -0.06 0.0
0.5372746904547943 0.02439300391790418 0.0
0.5139034646412424 0.06 0.04
-0.5139034646412424 -0.06 0.04
0.41358849559293387 0.06 0.0
-0.7171469290115033 0.021165332718839136 0.04
-0.7479973317145417 0.06 0.04
-0.7030120427199962 0.06 0.0
0.08769719539554167 0.06 0.0
0.029521960903255984 -0.06 0.0
-0.02952196090325599 -0.06 0.0
0.02952196090325599 -0.06 0.04
0.02952196090325599 0.06 0.0
0.029521960903255984 0.06 0.04
-0.47805793986482265 0.03008719549728311 0.01940109733029794
-0.4642419910175897 0.06 0.0
0.6103276788742331 -0.06 0.04
1.0 -0.06 0.04
0.9600486361512205 -0.06 0.04
0.9600486361512215 -0.06 0.0
-0.3092257782484355 -0.06 0.0
0.877735799536044 -0.06 0.0
0.8777357995360431 -0.06 0.04
-0.41358849559293387 0.06 0.04
-0.4135884955929341 0.06 0.0
1.0 -0.06 0.0
1.0 0.0 0.0
-0.14473309882269605 0.06 0.04
-1.0 -0.06 0.0
-0.9600486361512215 -0.06 0.04
-1.0 -0.06 0.04
-0.7921016077200962 0.06 0.0
-0.9192992165657531 -0.06 0.0
-0.9600486361512205 -0.06 0.0
-0.7921016077200956 0.06 0.04
-0.7766984080639845 -0.02052537972713625 0.04
-0.5625923446839085 -0.06 0.04
-0.5625923446839077 -0.06 0.0
-0.877735799536044 -0.06 0.04
0.7921016077200962 0.06 0.04
-0.3619231620553172 -0.06 0.0
-0.7479973317145423 0.06 0.0
-0.8777357995360431 0.06 0.04
-0.4135884955929341 -0.06 0.04
-0.46424199101758934 -0.06 0.0
0.513903464641242 -0.06 0.04
-1.0 0.0 0.04
-0.877735799536044 0.06 0.0
-0.30922577824843556 -0.06 0.04
[...]
POINT_DATA 584
VECTORS displacement double
-0.03170886745330676 0.028566095119905776 0.0059119806155318025
-0.04275738389115502 0.026942399155123337 0.004506607863396278
-0.04225391087978497 0.007583623576668265 -0.0050055697578228866
0.02117096228084968 -0.049251706867036546 -0.006392929643753454
0.036240415286543995 0.019376353903387662 -0.0027717139600692852
0.01665316152465885 -0.006620655388056071 0.0014624404833659898
0.0039009331307247957 0.022137580552670934 0.03510988943929593
0.024426784786706852 0.004795736996855144 0.010330349250018488
0.04818357675639278 -0.032592303892617316 0.0005019813562077528
-0.011695839116482887 0.02487024069267207 0.0075588255147046165
0.006102304224729855 0.04304130133783066 0.010626605570067013
-0.012971462139201684 0.02120396080377554 0.02793006516003804
-0.010289450096101702 0.03694762990029535 -0.007296429768885093
-0.03144677956026796 0.06957870361562253 -0.008856084681563176
-0.00171028474738636 0.009672879574221988 -0.003757954489173741
0.04002654151455925 0.00146679699351665 0.014761654105000032
0.010817755745465034 0.06363966041445507 -0.004789113875073794
0.011354167669535096 -0.029259140690601787 -0.004733444401577507
0.03574138609658763 -0.05386132911777168 -0.004387996489579263
0.023613321146188932 -0.047758879437037896 -0.0014596259626295926
-0.0607276380974614 0.0390180321219738 -0.011999986659093898
-0.07969655404723341 0.08818185652914884 0.00607499992855899
-0.002383759529593886 -0.06818357195704382 -0.030494012160994424
-0.006444680683193655 -0.07571872989163375 -0.005300030844182806
-0.00683976529174803 -0.050317725143560116 0.0017858729984845652
0.01161606845579139 -0.0839976884370911 -0.004641392028171653
-0.028750952570271205 -0.07366824030586948 -0.0139909643656314
-0.014913763770950689 0.005541868222185658 0.00017279913780497998
-0.01066315877754098 0.009634772609404157 -0.004071923753824671
0.00930841349640082 -0.015354430020680666 -0.0008165840342348477
-0.017448811531665335 0.015587535455720555 0.0038209551777825547
-0.0323732678972526 -0.007151570198227422 -0.005171864493516998
0.041020369282550824 -0.01770864753443995 0.0015464050745673836
0.0378657214568519 0.06475348312090277 -0.0021535984388801757
0.007316735274655479 0.1046131569213699 -0.03485633655821835
0.027957838176291668 -0.007519718478317725 -0.00016187218037392765
0.033227498114984565 -0.004405736797941039 0.00026433896102072586
0.0007667381734390919 0.018809440868949107 0.004477406390295711
-0.003512537441172474 -0.00206688488435959 -0.0019189231514731633
-0.0038457320362796986 -0.005516668561030917 -0.00327864666652776
-0.0012165054028318383 -0.002417217763576586 0.0003939824102381625
-0.001821516444881321 -0.002243569469738547 -0.0007480569047356642
0.00853399792458416 -0.004513117343445438 0.0011804957961477687
0.00032631554873045786 -0.0165185788035442 -0.001224577237753364
0.0002307578599402594 0.018879260886231437 8.209377814980218e-05
-0.03451734137970354 -0.0609134171922107 -0.008028074415191372
-0.022533713372571623 0.007468177244457036 0.0026125932606968893
-0.024251915463443633 0.07281904821314812 -0.0005587822218617911
-0.026720682102631964 0.056528920593504686 -0.005482675740889883
-0.015619968369256072 -0.09056448641170503 0.004302627261426181
-0.052844946931044655 0.1467364296964202 0.008461160615159094
0.035820658755341184 0.024586915680809243 -0.01920955276001306
-0.030901237860369836 0.0812357032470193 0.006870017623848024
0.01612448176917805 0.023335633110788255 0.02098769775848935
-0.007550509649035749 0.006576081241712065 -0.01888566809639904
-0.013562759464828107 -0.0008236877589226665 -0.003685490104484132
-0.012077008702151348 0.017504262031845814 0.00868504145648419
-0.011484034209788859 -0.020773866958467765 -0.003714034430111199
0.0002784223837951055 0.011407946087734811 -0.0019488801554546134
-0.0015694351526883816 0.0043702965439741575 -0.000423306334803595
0.0006032060923077393 -0.02152543175849364 -0.0033902728243016237
0.004131489995703622 0.0024441542507919333 -0.0005640395685135533
0.006107978085770021 0.005830444654341302 -0.0009549852356408323
0.004809930750744641 -0.015438883417337198 -0.0022367536135545975
0.0008810603324355705 -0.010744126321526439 -0.00013307538330411127
-0.005996783956991913 -0.0016750001375934157 -0.000919600130879036
0.005010808715430414 -0.008028415114980788 -0.005764987572735952
0.004931477186868263 0.006430124752789388 0.0005435683319273897
0.005925089085464882 -0.008769773309453966 -0.001148456090860566
0.004731483533924195 -0.005725126567105168 -0.0013491237029257894
-0.006373097830285599 -0.001703277758850992 0.0008831870921880801
-0.0023798776949235977 -0.003499592044139429 -0.0019462018860420915
0.006344910412220315 -0.013343138129373855 -0.001429999149182407
0.003141710776717102 0.004084618117068441 -0.01279756605091431
0.017625294415279772 -0.03864964259393005 0.012017846804760235
0.00810097655501595 -0.0356884039842141 0.010369097506561384
-0.026391323415078986 -0.0036795294617740226 -0.001931478326759508
0.029935043940269725 -0.036841891028062415 0.0030370048504677343
0.011628357906628067 0.02703779337392028 0.011361667307620404
0.03402839980003831 -0.04610204683061637 -0.002661032766681234
0.03284575194117439 -0.022156620387922835 -0.0006924403306392974
0.008044167974018043 -0.007261545364739293 -0.0008190628456441507
-0.004598138309820882 0.01488693214100632 -0.0019039356113618095
-0.005405432669239371 0.0408133576246558 0.003836452231586276
0.0012477167833112644 0.01615152831373451 -0.0015560860378372049
0.0004634881616169247 0.011492324143926017 -0.0010718920702496057
-0.011994078545728846 0.007730281180836584 0.011096910968026261
0.00379012744940023 -0.025681585970842306 0.0011899066974996742
-0.004054277289127174 -0.0006429874768401618 -3.150197032652357e-05
2.462412032026943e-05 0.0037992370694035563 -0.00021683863644948522
-0.004505752345784391 0.005890440356432112 -0.0036455821434458577
-0.008891879064394407 0.011548543074086055 -0.0034710166262565804
-0.01579310057608322 0.02663412679328848 -0.002303286722316096
-0.00920036677224537 0.010212509554756947 0.005414672488537059
-0.022534346761921203 0.011463324226221313 -0.00761564889494184
-0.009999865083232445 0.00920627130183055 0.0014360308079396163
-0.009091262495265158 0.007761112888228314 0.0023321422843867266
0.00016498316524864726 0.001163207635717899 0.0005100718981012523
-0.014777797261681167 0.027472758366923776 -0.008383844337220319
0.004730684062823344 0.0048028194607287675 0.006214732986306133
-0.012327606819000029 -0.019615328119530154 0.0017673568842779138
0.004834074164415019 -0.0008369643637142187 -0.001048917489481771
-0.0032530285293924845 -0.0140872636846829 0.0045968251436045325
-0.005543751261035678 0.010327117387571269 -0.0014896347099868051
0.0036259421524949204 0.0021567845803467946 0.0016734817029775387
0.0015075783920841755 0.002120169189702892 5.256857313331547e-05
-0.007472923476581926 -0.006965336355916413 -0.0008488822210902616
0.0011367233906249942 -0.010458053236627303 0.0027882246332623884
0.0005555937598338259 -0.017692530676818516 -3.6287770460049255e-05
0.000631962881727334 0.02832957738496235 -0.008644896812689382
-0.0025856691164683624 0.013201148276917873 0.0012124103232453573
0.004125726521168022 -0.0005209177638298008 -0.0003413439887305561
0.000672209162499883 -0.008509654919183776 0.0020198344192792475
-0.00819684418395116 0.0014572537307102973 -0.001220031343789575
-0.006355063427944928 -0.00041322698617643375 2.4886323426832156e-05
-0.015461715380854975 0.007656742446344063 9.171623172312075e-05
-0.001665020935605105 0.022529544982767612 0.0017629083313105256
-0.002362262829452984 0.03170170858756276 -0.0008018407237572319
0.000443846762109967 -0.021983753536878117 -0.00022296841528587533
-0.01722420922822915 0.010432173826620704 -0.0016406102500401052
0.004625817712571384 -0.022994597093685402 0.0047948187384978256
0.0048373429049713215 0.0072600359776797884 -0.0015230310978877105
-0.007193067677084499 -0.01817769521096002 0.0008980920235849162
-0.001296010339173013 -0.01370009975441702 -0.0006120466830354143
-0.006503978770757108 -0.026893150041802396 -0.0040408574691324015
-0.0007655487380381046 0.021470249100618784 7.983396549950022e-05
0.009338376088758687 -6.14227646615092e-05 0.001982910122181843
-0.0015173016732713028 0.002678664587748815 -0.0002321296024496228
-1.5931444397192084e-05 -0.028333466545861278 -0.0013872284184815917
-0.00014980415385937884 -0.013478656299471271 0.00019227294070412596
0.005849882057910591 -0.013345192253876216 0.0029349929181573114
0.006810543004982899 0.004407935779071529 -0.009392332523811935
-0.006625806724729351 -0.019499580393253994 -0.0055353262534964835
0.0041258627923879765 -0.0025208382361440237 -0.009265668744016914
0.0022220610333048983 -0.009829916478667341 -1.4299049757376848e-05
-0.008374809320594642 -0.02282934341450584 0.0012967676220473196
-0.005610440409643261 0.021254846235341483 0.003759859642594805
0.003452659773168619 0.034354576722708044 0.0026799028187132353
-0.0019297615659602814 -0.006502925629896968 0.0003122197466212394
0.0010346060264999739 0.03732700163271879 0.008566938188422276
-0.0029474515865392076 0.003595241569407975 0.00526514318560188
0.007879810439088 -0.005580828903259896 -0.0017652425572024068
0.01681749858719014 0.0018256645827882734 -0.007790669170836865
0.012524653465871562 -0.005215303768361745 0.0037379509055731424
-0.01679143599693826 0.006384598222853118 0.001514298631405067
-0.013470093243805732 0.01118880514371984 -0.003780043974130341
-0.027007997783734587 -0.016139327618220248 -0.002743465496930475
-0.0014387262507429442 0.013945877410005199 0.00021213486621916055
0.0051864528210502445 -0.005180642388260104 -0.0003479221153730763
0.047650293553165315 -0.016102270534627858 0.00609456763486701
0.019369979121925663 -0.03023059128893827 0.0018031958584734933
0.03524653210142169 0.013387246199948187 0.0029350844042288953
0.03394603091930191 0.03592480593038185 -0.009356290565426799
0.059429571350113876 0.027391094860290795 0.0036180783739651473
-0.003501529036809219 0.020180490253366944 0.0004071027805867067
-0.011504968820704316 0.013125645253093489 0.002082658421115506
0.00048640247154606547 -0.004453117832088829 0.0002495900468450206
0.003401725756679673 0.008087196257111125 -0.0009408424816605454
0.0055569174234007795 0.02236169248847312 5.776670457724163e-05
-0.004508452634771397 -0.005389013991885855 0.0004984017775141412
0.012676722811386213 0.010187491395969445 -0.0043762810290057476
0.012049336764644227 0.008955317677837303 -0.0009102748918204407
0.009359778483332071 0.0028200782873902645 0.0035936105432296697
0.005920166420270858 -0.0006852204925471044 -0.006530003882085202
0.003378515374726242 -0.014128992642276067 -0.0009432131331264617
0.0022081644446765806 0.0084400956672069 -0.0012132749711262218
0.001852053257111193 0.011410065343795127 0.0017160683801721848
0.005532468193701363 0.0010232329884727596 -0.0013870969378392075
0.006616845220909583 0.054407558415754856 -0.011342767471027073
0.0005435952805493519 0.0023319668829067876 -0.0009127217069948373
-0.0015033904840592658 0.016340445374395742 0.0002964963328649399
-0.02538182697820012 -0.006919575656314701 0.002519625947448595
-0.00989725494361826 0.03753695248106773 0.004562964837758493
0.003933487493891957 0.0248397921809463 0.002365289283159814
-0.002462373235313233 0.007644754779347941 -0.0006617986577015042
-0.006697812744743081 0.009883437921917286 0.0016254347316480937
-0.0095377987618225 0.03843437859818414 0.010597354190058226
-0.019481177654182277 -0.05417857277146836 0.016129422770537524
-0.013200758872118254 -0.012730315126667382 -0.0025359124436837785
0.0070802555450778576 0.005926797731174847 -0.015495292667101765
-0.01876905944674461 -0.004863868328955884 -0.00397158040033339
0.014845154677086381 -0.022566522340320565 0.0038727087086854366
0.009027016041901263 0.0900806231875093 -0.001143836936128741
0.005025605990334645 0.020064069823491515 0.008712286823608167
-0.008491884701171473 0.05238897854519924 0.00786141292188843
-0.006428750597887621 -0.012520271879807074 -0.0003958991071504036
0.004390300184151233 0.002639742937636455 -0.0032007271533469194
0.016357376700705938 0.039641601070924695 -0.00392279913320447
0.001885520418781798 -0.0207279505349166 0.0014110731892245621
-0.0086630577637981 0.006779457253685579 -1.445497427401594e-05
-0.00022620315583516713 0.016129871241769865 5.0453061618778506e-05
0.0040172430863538765 -0.011238672150863714 -0.00025508201453131025
0.003235069824597238 0.016856354511825725 0.001960828503418211
-0.0001783005015103184 -0.004363288773893055 -0.002494768612821145
-0.0009958289715723747 0.020643428190744006 -8.963990992834327e-05
-0.006492875409632107 0.011469967674401322 -0.0013081248464875852
-0.0022151899077734465 -0.0114236278763628 0.0008019199658687218
0.008262003381390139 -0.02145274187425258 0.00434686533077321
0.005744419284760277 -0.014303335510080024 0.001204065886121494
0.004718501719051022 -0.010592990510931788 0.00012728982704811803
0.001401883253944325 -0.008522481330196261 -5.115897759876017e-05
0.016591764406193213 0.022819828497316157 0.005481282443611353
0.012695915714684055 0.015625812426995168 0.0053933401692260645
0.0032255504287767365 0.01568673227084222 -0.0022465299996018455
1.6871294440537976e-05 0.005162325433768887 -0.0026623789907541675
-0.0036053672879935534 0.009870111988458124 -0.0026337406581078866
-0.0016441882804548373 0.0314744260431948 -0.00850850537782944
-0.011729062508920338 9.906355746995518e-05 -0.00018366422842280267
0.005178487485846802 -0.009420415734739408 -0.0038349650177972403
-0.006002130125354925 0.00012418334739996645 0.0010151665657752381
0.007109010896971806 -0.006851905770935872 0.00023483319572419707
0.005020264607283523 0.005538015058603512 -0.00012943113925471808
0.015414076565409648 -0.0017604750769634656 0.0008383477028677225
-0.002821285570961982 0.007161614055000629 0.0011033197793077264
0.01697077646364865 0.010173347451366083 -0.006992411516465693
0.00010151246619635984 -0.0036860567294312928 -0.00622524437994821
0.001871302250392184 0.013140318123101605 0.0036800205126063723
-0.002214988570764899 -0.008825860766321523 -0.0009390808325560135
-0.010980631872194536 -0.015486571813939257 -0.002684876026808335
0.017700187544250328 0.04011899241008169 -0.005300982601014264
0.009477076386834168 -0.007439197185745621 0.004785781395241185
0.0023110593127087797 0.0033526478881870203 0.0004250400247324871
-0.0006074581651451858 -0.0032423859239279398 -0.0004974206370515787
-0.006878403013148466 0.007560304621983505 -0.0013532136457709838
0.0011861675551875126 -0.0026479403415142705 -0.002233189340538828
-0.004276961746498128 -0.012136311344711086 0.002142869288036645
-0.005693999495707489 -0.01814459655685557 0.0041059625707801405
-0.008262255310164125 -0.006758694150249178 0.00048585938663379155
-0.010700306134554758 -0.004960242050816553 0.00203395968197617
0.009306581171225063 0.007947306319958361 -0.005686670801382862
0.010180266490191868 -0.013705862913065347 -0.004790602724391701
-0.0001670725072286234 0.025274161863758148 -0.0007158252583867197
-0.007769124432265858 0.0003249889519314822 0.006994421195780008
-0.014374575571897046 -0.012991696463699682 -0.00012409527722284368
-0.003219050872126312 -0.04888825937639451 -0.0018617917029003564
0.004767711998143248 -0.06908398461696333 -0.0017864705922637683
0.005643994336434584 0.009959624763243791 -0.004455011969709264
0.001680535339673397 0.007707009182865264 0.0007302220514845912
-0.00601103065015426 -0.014028007608656988 -0.008968765156005457
0.014695550271792661 0.007713800616344303 0.0012406794486119039
-0.0006241057680867557 0.03644304119178597 -0.008617344103962046
0.03761691478439679 -0.07245794082777918 -0.001538206248709019
0.02506981170558636 0.018972846971825438 0.011837420223780514
0.046106653553076665 -0.122650730571262 -0.0008080552479425532
0.013524653458018444 0.0024748033108482506 0.0010853731461671378
0.002712968304021624 -0.003169326706327845 -0.0023139558081898626
0.020784138195713824 0.002795008973687757 0.004633826084623316
0.016420922822230132 0.011696547266274986 -0.007452674976181951
0.013025933886829799 -0.04765436329551918 -0.0006576736761339132
0.00656322134129971 -0.017720683922348213 -0.0036266691592325008
0.006861730305953903 -0.01271606258206172 -0.000616903274720966
0.004042531351111201 0.014618887591697771 -0.0071279531484287825
-0.10120113340934804 0.12827423683905487 0.013543193751361322
0.009163960892334826 -0.0012478360905762943 -0.0001361895503931433
0.009701674741321121 0.025662788284388983 -0.0030444313203734264
-0.0012796955056784377 0.06741463876365583 0.007190004559342063
-0.0077770162432838396 0.012535440239102634 0.0012787359797306014
0.00531400504508853 -0.00714794816224412 -0.0017562597390372136
0.000509348588718035 0.00037416195463031753 0.0020238186793222397
-0.025171424129537705 0.05241514793048565 -0.005773458018442659
0.012738666662851885 0.054700523941726434 0.01312249328201043
-0.0029976817616064865 -0.023766604540273732 0.0008696754439829276
0.010761725413954018 0.02988374482835311 0.0023623316012714377
0.002479801041890134 -0.034275395855443626 0.010409062862506702
0.002683380813345405 0.006732788462206828 0.002758221533685663
-0.0055000364949673725 0.021889387163825255 0.0012532235357250554
0.04670711169903139 -0.010455450519447358 -0.009459676470363575
0.005047635085542569 -0.005773994095562099 0.0008596300966498635
-0.011270945400274665 0.005048961115083754 0.003215969588018812
-0.002642921074667654 -0.012999704316309714 0.005419128393918849
-0.01978730995649053 0.003752503470483856 -0.0012787556364934848
0.057730942145308085 0.024638150962287768 -0.0031388165050075614
-0.015414688977925915 0.01173178884546022 -0.0052642664585005414
-0.005613055376349663 -0.022940022654516536 0.0061664523891027685
0.019910936235478002 -0.007746033390336532 0.006109789987731677
-0.01208823754298086 0.16505802803295805 -0.022087842918140168
-0.04911294362467881 -0.14222427585565817 -0.00752619538906975
0.00027765633790271475 0.011553293882788994 0.0033977468776414097
-0.006241331685584075 0.0164064937688185 0.0053162625879800245
0.004671275841178621 0.006316356549235116 0.00037892275592265847
-0.0005730621938357526 -0.03845616693395095 0.008330121264230175
0.010655670817986976 -0.01688621227679852 0.01290214534329547
-0.09030145154031649 -0.1706656332550575 -0.05102371094822491
-0.10063832636205063 -0.27557410235908625 0.028003738090012026
-0.10288531285608184 0.0821559590768031 -0.007477247697377542
-0.007503687018459392 0.03160589819507249 0.0029914984592725362
0.025035681237082576 -0.02115417160020809 0.006966649012297123
0.028488388661096452 -0.01345282004821735 0.00607095071444718
-0.010143960021325558 -0.029380227162682567 -0.00723788708246596
0.005086546014882246 -0.035839615119824746 -0.00793437914699274
-0.00581152743120908 -0.023306239154960065 -0.0034233681623509066
0.00451176260609702 -0.014422325823346538 0.0007638914342548151
0.04745075537780217 -0.0019725663774888703 -0.0015318218405369545
-0.007635785330376635 -0.008209778472276278 -0.0017475263349903715
0.003030837326516663 0.07747876335391769 0.014617660325521451
-0.021931928313199647 0.0279006710645984 -0.0028273588847802
0.004681981849067543 -0.019579148945346486 0.0011525777270262483
0.019756408694607763 -0.02679165505999318 -0.001596645578804893
-0.01107143114608955 0.00850105315293518 -0.005182746926652422
0.011690696821163396 0.022704448588452143 -0.003710563366573194
0.006387193997094334 -0.03050614986998784 0.007579564915093452
0.0008986271606129324 0.01573266900758084 0.0016078094130244614
0.0009773380929426663 0.022665474817789095 0.002520584888504551
-0.001645345341998907 -0.012327708578696556 0.0016916183044852105
0.009876220563955556 0.017343726778096657 -0.0012741449448465314
-0.01740607456396265 0.03481468010125093 0.004577210075294527
0.02585622993051473 -0.017942611930739046 3.953171457921278e-06
0.00376139493732374 0.03650357974067257 -0.0025781883990111114