# vtk DataFile Version 2.0
Really cool data
ASCII
DATASET UNSTRUCTURED_GRID
POINTS 584 double
-1.0 0.0 0.0
-0.9600374798207896 -0.027590413451835553 0.04
-0.9589620457797374 -0.028177574718636023 0.0
-0.9553815213922792 0.019675326217199102 0.04
0.6719637381218919 0.02110482676547816 0.0
0.6414775595248179 0.020020515529780993 0.04
0.6571281419012174 0.06 0.0
0.6240641012293764 0.022292119262118645 0.0
0.687851041884645 0.021313940245698455 0.04
0.7030120427199962 0.06 0.04
0.657128141901218 0.06 0.04
0.7030120427199952 0.06 0.0
0.6885310613992013 -0.0196061899732657 0.0
0.6720046167250797 -0.020579604775701428 0.04
0.6407079554435648 -0.019738458112036637 0.0
0.7171469290115033 0.021165332718839136 0.0
-0.7921016077200962 -0.06 0.04
-0.7604373514312079 -0.019298436119384588 0.0
-0.7479973317145423 -0.06 0.04
-0.7479973317145417 -0.06 0.0
0.7030120427199962 -0.06 0.0
0.7030120427199952 -0.06 0.04
0.6571281419012174 -0.06 0.04
0.7479973317145417 -0.06 0.04
0.7325903506195701 -0.020274227246539274 0.0
0.7176321617908783 -0.019839353713154383 0.04
0.7604373514312079 -0.019298436119384588 0.04
-0.8488906624897727 0.019856366527450334 0.04000000000000001
-0.8052789150181434 -0.019306901564895652 0.0
-0.805541091654972 0.020469431563422978 0.04000000000000001
-0.8203038938742353 -0.020636147377884773 0.04
0.897529295217204 0.022569895749215793 0.0
0.8488906624897727 0.019856366527450334 0.0
0.8569454102823642 0.029774901726562965 0.04
0.8777357995360431 0.06 0.0
0.9553815213922792 0.019675326217199102 0.0
0.95349853104827 0.02147987272312249 0.04
0.9103536180674616 -0.021283841161765512 0.0
-0.5450807564691462 -0.01715484187473429 0.04000000000000001
-0.5372746904547943 0.02439300391790418 0.04
-0.49049502097572617 0.000359712426279548 0.04000000000000001
-0.5409244119327052 -0.005150142234760652 0.0
-0.48901428549955095 -0.02776609156780287 0.019771763033692314
-0.4642419910175897 -0.06 0.04
-0.43891524330526177 8.673617379884035e-17 0.04000000000000001
0.7479973317145423 -0.06 0.0
0.9600486361512215 0.06 0.04
1.0 0.06 0.04
1.0 0.06 0.0
0.9192992165657531 0.06 0.0
0.7479973317145423 0.06 0.04
0.7309057796957548 0.02177174945441851 0.039999999999999994
0.7479973317145417 0.06 0.0
0.7613659684934695 0.020945326906433456 0.0
0.7736855084518748 0.020914979208800512 0.04
-0.8570647961856006 -0.015388027432140593 0.0
-0.8569454102823642 0.029774901726562965 0.0
-0.8649535140731797 -0.02016838668923704 0.039999999999999994
-0.1726925416005594 -1.214306433183765e-16 0.039999999999999994
-0.22806385632140147 1.0755285551056204e-16 0.039999999999999994
-0.2006519843784229 0.06 0.0
-0.22806385632140147 -1.1796119636642288e-16 0.0
0.438611990705585 -5.252150912499892e-05 0.04
0.41358849559293387 -0.06 0.04
0.4135884955929341 -0.06 0.0
0.4642419910175897 -0.06 0.0
0.4782715374234063 0.0302584611690398 0.019894876072988572
0.513903464641242 0.06 0.0
0.49049502097572617 0.000359712426279548 0.0
0.46424199101758934 0.06 0.0
0.46424199101758934 -0.06 0.04
-0.8164681441220105 0.022269284396602723 0.0
0.48912437490067595 -0.00041996788971368666 0.04
0.4642419910175897 0.06 0.04
-0.8353421249080566 0.06 0.04
0.8649535140731797 -0.02016838668923704 0.0
0.8973163514988121 0.02144006532192878 0.04
0.5625923446839085 0.06 0.04
0.6103276788742331 0.06 0.0
0.5943416245309461 0.018901239582525348 0.04
0.5790918012159274 0.021628695864523574 0.0
-0.593631917725493 -0.01946781888421301 0.04
-0.6103276788742336 -0.06 0.04
-0.6407079554435648 -0.019738458112036637 0.039999999999999994
-0.6264545933043166 -0.021459100211208025 0.0
-0.6103276788742331 -0.06 0.0
-0.6103276788742336 0.06 0.0
-0.6240641012293764 0.022292119262118645 0.04
-0.6414775595248179 0.020020515529780993 0.0
-0.5943416245309461 0.018901239582525348 0.0
-0.5790918012159274 0.021628695864523574 0.04000000000000001
-0.5625923446839077 0.06 0.04
-0.6103276788742331 0.06 0.04
-0.5625923446839085 0.06 0.0
-0.7325903506195701 -0.020274227246539274 0.039999999999999994
-0.7176321617908783 -0.019839353713154383 0.0
-0.7309057796957548 0.02177174945441851 0.0
-0.7736855084518748 0.020914979208800512 0.0
-0.7613659684934695 0.020945326906433456 0.04
-0.6571281419012174 0.06 0.04
-0.6719637381218919 0.02110482676547816 0.039999999999999994
-0.7030120427199952 0.06 0.04
-0.687851041884645 0.021313940245698455 0.0
-0.029521960903255984 -0.06 0.04
-0.05860957814939871 -6.938893903907228e-17 0.039999999999999994
-0.05860957814939863 5.898059818321144e-17 0.0
-0.08769719539554167 -0.06 0.0
-0.08769719539554144 -0.06 0.04
-0.2823507532564078 -5.204170427930421e-17 0.04
-0.25547572826437986 0.06 0.04
-0.25547572826438003 0.06 0.0
0.38751191920162714 6.938893903907228e-18 0.0
0.3352618020299945 -3.469446951953614e-18 0.0
0.36192316205531716 0.06 0.04
0.3619231620553172 0.06 0.0
-0.36192316205531716 0.06 0.0
-0.335244821032008 -1.1796296425746478e-06 0.0
-0.3352618020299945 -3.469446951953614e-18 0.039999999999999994
-0.38745316199969926 -7.894682722445895e-06 0.0
-0.3619231620553172 0.06 0.04
-0.3092257782484355 0.06 0.04
0.28235075325640757 5.551115123125783e-17 0.039999999999999994
0.30922577824843556 -0.06 0.0
0.335244821032008 -1.1796296425746478e-06 0.04
0.3092257782484355 -0.06 0.04
0.36192316205531716 -0.06 0.0
0.38745316199969926 -7.894682722445895e-06 0.04
0.3092257782484355 0.06 0.0
-0.38751191920162714 6.938893903907228e-18 0.04
-0.28235075325640757 5.551115123125783e-17 0.0
-0.30922577824843556 0.06 0.0
0.6103276788742336 -0.06 0.0
0.593631917725493 -0.01946781888421301 0.0
0.6264545933043166 -0.021459100211208025 0.04
0.4889627886584896 -0.027603176797077415 0.020155725176282127
0.583287522480325 -0.023728770665855194 0.039999999999999994
0.5450807564691462 -0.01715484187473429 0.0
0.5409244119327052 -0.005150142234760652 0.04
-0.48912437490067595 -0.00041996788971368666 0.0
0.3619231620553172 -0.06 0.04
-0.657128141901218 0.06 0.0
0.9600374798207896 -0.027590413451835553 0.0
1.0 0.0 0.04
0.9589620457797374 -0.028177574718636023 0.04
0.5625923446839077 -0.06 0.04
0.5625923446839085 -0.06 0.0
0.7766984080639845 -0.02052537972713625 0.0
-0.438611990705585 -5.252150912499892e-05 0.0
-0.583287522480325 -0.023728770665855194 0.0
-0.9600486361512215 0.06 0.0
-0.95349853104827 0.02147987272312249 0.0
-0.9192992165657539 0.06 0.0
-0.9192992165657531 0.06 0.04
-1.0 0.06 0.0
-0.14473309882269625 -0.06 0.04
-0.14473309882269605 -0.06 0.0
-0.11621514710911887 -1.214306433183765e-16 0.0
-0.17269254160055947 1.1796119636642288e-16 0.0
-0.14473309882269625 0.06 0.0
-0.11621514710911884 1.214306433183765e-16 0.039999999999999994
-0.8353421249080566 -0.06 0.0
-0.8353421249080575 -0.06 0.04
-0.8973163514988121 0.02144006532192878 0.0
-0.897529295217204 0.022569895749215793 0.04
0.11621514710911887 -1.214306433183765e-16 0.039999999999999994
0.05860957814939871 -6.938893903907228e-17 0.0
0.05860957814939863 5.898059818321144e-17 0.039999999999999994
0.08769719539554144 0.06 0.04
0.6103276788742336 0.06 0.04
0.5139034646412424 -0.06 0.0
0.9096368506350345 -0.020963842829632554 0.04
0.805541091654972 0.020469431563422978 0.0
0.8052789150181434 -0.019306901564895652 0.04
0.8203038938742353 -0.020636147377884773 0.0
0.08769719539554144 -0.06 0.0
0.08769719539554167 -0.06 0.04
0.9192992165657531 -0.06 0.04
0.8164681441220105 0.022269284396602723 0.039999999999999994
-0.9103536180674616 -0.021283841161765512 0.04000000000000001
-0.8777357995360431 -0.06 0.0
-0.9096368506350345 -0.020963842829632554 0.0
0.8570647961856006 -0.015388027432140593 0.04
0.7921016077200956 -0.06 0.04
0.8353421249080566 -0.06 0.04
0.7921016077200962 -0.06 0.0
0.4135884955929341 0.06 0.04
0.43891524330526177 8.673617379884035e-17 0.0
-0.7921016077200956 -0.06 0.0
-0.08769719539554144 0.06 0.0
0.14473309882269605 0.06 0.0
0.1726925416005594 -1.214306433183765e-16 0.0
0.11621514710911884 1.214306433183765e-16 0.0
-0.029521960903255984 0.06 0.0
0.0 0.0 0.0
0.17269254160055947 1.1796119636642288e-16 0.04
0.14473309882269625 0.06 0.04
0.0 0.0 0.04
0.2006519843784229 0.06 0.04
0.22806385632140147 -1.1796119636642288e-16 0.04
0.22806385632140147 1.0755285551056204e-16 0.0
-0.6720046167250797 -0.020579604775701428 0.0
-0.7030120427199962 -0.06 0.04
-0.7030120427199952 -0.06 0.0
0.25547572826438003 0.06 0.04
0.30922577824843556 0.06 0.04
0.25547572826437986 0.06 0.0
-0.02952196090325599 0.06 0.04
0.2006519843784232 -0.06 0.04
0.14473309882269605 -0.06 0.04
0.2006519843784229 -0.06 0.0
0.14473309882269625 -0.06 0.0
0.2823507532564078 -5.204170427930421e-17 0.0
-0.36192316205531716 -0.06 0.04
-0.41358849559293387 -0.06 0.0
0.5372746904547943 0.02439300391790418 0.0
0.5139034646412424 0.06 0.04
-0.5139034646412424 -0.06 0.04
0.41358849559293387 0.06 0.0
-0.7171469290115033 0.021165332718839136 0.04
-0.7479973317145417 0.06 0.04
-0.7030120427199962 0.06 0.0
0.08769719539554167 0.06 0.0
0.029521960903255984 -0.06 0.0
-0.02952196090325599 -0.06 0.0
0.02952196090325599 -0.06 0.04
0.02952196090325599 0.06 0.0
0.029521960903255984 0.06 0.04
-0.47805793986482265 0.03008719549728311 0.01940109733029794
-0.4642419910175897 0.06 0.0
0.6103276788742331 -0.06 0.04
1.0 -0.06 0.04
0.9600486361512205 -0.06 0.04
0.9600486361512215 -0.06 0.0
-0.3092257782484355 -0.06 0.0
0.877735799536044 -0.06 0.0
0.8777357995360431 -0.06 0.04
-0.41358849559293387 0.06 0.04
-0.4135884955929341 0.06 0.0
1.0 -0.06 0.0
1.0 0.0 0.0
-0.14473309882269605 0.06 0.04
-1.0 -0.06 0.0
-0.9600486361512215 -0.06 0.04
-1.0 -0.06 0.04
-0.7921016077200962 0.06 0.0
-0.9192992165657531 -0.06 0.0
-0.9600486361512205 -0.06 0.0
-0.7921016077200956 0.06 0.04
-0.7766984080639845 -0.02052537972713625 0.04
-0.5625923446839085 -0.06 0.04
-0.5625923446839077 -0.06 0.0
-0.877735799536044 -0.06 0.04
0.7921016077200962 0.06 0.04
-0.3619231620553172 -0.06 0.0
-0.7479973317145423 0.06 0.0
-0.8777357995360431 0.06 0.04
-0.4135884955929341 -0.06 0.04
-0.46424199101758934 -0.06 0.0
0.513903464641242 -0.06 0.04
-1.0 0.0 0.04
-0.877735799536044 0.06 0.0
-0.30922577824843556 -0.06 0.04
[...]
POINT_DATA 584
VECTORS displacement double
-0.09018654470165093 0.09146575458192213 0.011831833135527844
-0.10401525688299026 0.10193498770700699 0.009826183833475508
-0.08253057079657848 0.041304159127334775 -0.011676041003651333
0.02188753048480863 -0.1297035137946677 0.0006616797472110724
0.0015401785760985253 -0.0057171300713018324 -0.00028005104504720096
0.00011651984276341881 -0.016989958807377713 0.004650899277388666
-0.0017448111827323952 -0.020163216086608145 -0.0015970923922529548
-0.00477036446922623 -0.006591848570064579 -0.0027378423817042957
0.004858283999115498 0.00869445821540522 -0.0017989134953241648
0.0007246159634623443 0.021694686067065216 -0.004936432577040219
0.001881272595744958 -0.033123473553314804 0.003486703093486881
-0.0014131703626349787 0.01206347332494598 -0.003921463491620168
0.006361621413094805 -0.005921276378970402 0.0021262527969377145
0.011663031592156353 -0.0011361715003164092 0.0034156350774240127
0.0007113175287548248 0.005263711540090956 -0.0013446554371651246
-0.0036301907536768385 0.005919151799086378 0.000690619836487944
0.013183262248213992 -0.045403910073048476 0.005986882705373784
-0.04235510080701075 0.04595258100705075 0.0016564223204414263
-0.011470120859633283 0.12686977796221835 0.0022055328045450045
0.007550033107933257 0.08201666188878166 0.015219252402277377
2.7837791943506847e-05 -0.01697424319545221 -0.00022334832951315778
0.006156318432593762 -0.02568541380293441 -0.0016940969465024823
-0.0031103640275769043 0.02733506731534816 0.009730009376445976
-0.0007639794768567139 -0.007063790909088639 -0.003575592744305407
0.0015927436944780553 -0.003942579382915928 0.0008608991774392566
0.003448205120549191 -0.009201008096951025 -0.003863417564429885
-0.0005583295531251884 0.003920700482066185 -0.00038810423033731607
-0.021170105943492133 0.017129755973545706 -0.012350929450433614
-0.024759454969781908 0.0013346899752281103 0.005240867256036472
-0.02273903750157409 0.006849270386703601 0.010411115962268146
-0.02486925978927143 0.005389413491993388 -0.004957257600880069
-0.013629806979171027 -0.01253611009076665 -0.0006922495677615495
0.002166034399185654 0.0023286047002067556 -0.0010199708603608696
0.0006993994858844795 0.004672399961526516 -0.004228196050341074
-0.010149464758705694 0.010713579807401742 -0.004109505546512472
0.015247721331336445 -0.0015536550168645951 0.0008057920830150179
0.01967809105104111 0.0007763087687404423 0.0014753164888373254
0.004129631888725782 0.01894791938762696 0.000990322649340265
0.0032829730894700193 -0.005797813185312862 0.00445575455495047
0.005367568354287855 0.0011325144690490145 0.0014104720280205716
-0.001539280838204107 0.0032963983992461035 -0.004331613208212649
0.000227130775981569 -0.0033255425080462443 0.002093782447057389
0.010203574278073798 -0.004931748560690093 -0.0013939104025264526
0.001391141088092532 -0.03170712591769749 -0.0058132895647787204
-0.006420470399876815 0.009297943267953732 -0.0015781300339039528
-0.0025629407754039495 -0.00399648571938314 -0.001755490158321533
-0.011421707235971206 0.008878268270364408 0.0015514466998265617
-0.012358998258743295 0.0410209565946066 -0.0018503477592051254
-0.015775814852756264 0.029039795605826292 -0.005905179246882866
-0.009867198074649268 -0.04280726157429379 0.005440710826283355
-0.0039360752823479886 0.007459561820768919 -0.0024437577193169805
-0.005066223172297596 0.008587587488524718 -0.004105554388457984
-0.00527079523324721 0.010681121155599863 -0.0006565706660384702
-0.010004365570908618 0.004498687776384709 -0.003530102858147668
-0.007261422249565127 0.0014853477447354221 0.0043841626220150615
-0.030674587422902706 -0.018834364229299693 0.0022685589847393577
-0.006632768853429612 0.013665261216632318 -0.0006526704714268748
-0.036085994954647954 -0.042333977795316086 -0.013016838862748088
0.004091207534271754 0.00495871994585329 0.0005357152375814163
-0.008006150925973878 0.0017419071726628623 0.002170701638433527
0.002073522375650861 -0.02563772133395446 -0.0002732262267619693
-0.0019023250355256478 0.0011381438020471191 -0.0007254011773156256
-0.0022988263740958744 0.00932192902741296 0.0009999039379705137
0.0011049060847776351 -0.0041239135849319986 -0.0011954153123913324
0.0010643119560015894 -0.0034304157302923175 0.00105882417560045
-0.0036895669111835197 0.004382503103834836 0.002499528941706452
0.0001852501897223096 -0.006368709872808098 0.0024941673223386387
-0.001000539421941782 -0.0035692519598591113 -0.0006309284518949161
0.0008108181500405694 -0.002485248821537144 2.2792473308387137e-05
-0.000820235311310043 -0.006167238452396732 0.0005788105723699045
-0.0031667028488274363 0.005520021354377646 0.002481179252164885
-0.007627242780104343 0.0023095070258823697 -0.002509686215165419
0.002608933748511954 -0.0010122193289816648 0.0028995125878117276
-0.002328359830068959 -0.017770574017667382 0.0075362153362600725
-0.007330422253223398 0.0022586580213047264 -0.008636119129120438
0.002032147700466317 -0.011122505362731488 0.0016451396560474723
-0.014095663919453976 -0.016032701906318593 0.004955101435953363
-0.009478567087416756 0.024528095723250473 -0.005701127980086364
-0.00036427345273523187 -0.009718307006298537 -0.0027582184966547423
-0.01181242258561035 0.017235332933825155 -0.00023453606478924632
-0.008231215304828733 0.009802480749848089 0.0018940561511797012
-0.016433639692364603 0.02273594517445874 0.0028119075298039782
0.0461929904552348 -0.007413324830290382 0.005670541593432047
-0.0020709447979370145 -0.08148552345986218 -0.004722460566879212
-0.009142985475174196 -0.028126538487273554 0.00014776826848376235
0.03296841104913649 -0.009751560936604748 0.0009023098819601482
0.01221193949216876 -0.01654012736706321 -0.013131601492376186
-0.015431012208981689 0.027535970309803454 -0.002766116911264858
-0.0007830706831767683 -0.001886784002470851 0.003746823567996227
-0.0032822045396302003 -0.0052587696566981 -0.0008930699521402418
0.0034664433473969992 -0.011194877286465234 0.006545724948410639
0.011796638050023648 -0.025350833450568322 0.005214703390189915
0.016829570928171847 -0.04670494793936508 0.0051724652991263905
0.012622641943286519 -0.019444496681780034 -0.006048627300539189
0.020553262815902643 -0.019306371639574004 0.018342671224312428
0.002947358355536373 -0.015076135312204815 -0.007284225182677205
0.006264014314486636 -0.01773784186397251 -0.0025774040456947177
-0.002573393111941911 -0.012075584578094786 0.0024048377280849807
0.023358940990730232 -0.05072868514607025 0.020019558539885907
-0.0038903228290284404 0.01853740233798549 -0.011796573214407064
0.018474641689098088 0.03593558352893122 -0.005844393884035123
-0.0012998281367476458 0.002059246873802181 -0.00017493257602093124
0.004067167441605856 0.020685519069863618 -0.0054316002645746365
-0.0015784781408213304 0.026353532791940602 0.005057858493790279
-0.003287193889909258 0.004867178981377917 0.002836291290189795
-0.004424594875131646 0.002675782066915238 2.02020192235965e-05
-0.004854657928144321 -0.007524501906218523 0.0003584207633037775
-0.004235072552582273 -0.01144090843552512 -0.002264507915442581
-0.002577567397043893 -0.008605581784395386 -0.003979791557595943
0.0002651100157252747 0.024074671201050533 -0.005976244651380231
0.00037724906484676714 0.011860750692150994 0.00036372027159229276
0.000846095359356824 -0.007037593785332898 0.0013803615093606956
0.004002075424757852 0.0072973854991722235 -0.0002861776006259586
0.003974200460026783 0.010866372574403453 -0.0030774688854798434
0.0028743654793394564 0.006773036047592791 -0.0027189868981354727
-0.002497249802940085 -0.010661499152064578 -0.0011937615117540781
0.005995578628524474 0.012624910748791403 0.0018417658941785775
0.0065060466675069435 0.02057485088774339 -0.0016367512659186628
-0.003195924619432728 -0.012516512088735322 -0.00018252272971773325
-0.0009768174949670784 -0.018116939672341327 0.00555755814143908
0.008694077299755043 0.009016472938441624 -0.003165607708948848
-0.002235398557550402 -0.010014811585651028 0.00036955770423516754
0.006045631565252248 0.006904756038851286 0.00197914944386043
0.005707657726705978 0.011779932843566328 0.0006786051462109224
0.003148278299749515 0.011180969791749278 0.004556091074060625
-0.0012909054377588523 -0.009161628538003211 0.0012347965000702498
-0.0003570994393586301 -0.00962206193295157 -0.0030239201040655997
-0.006902983578906078 -0.018350078428948723 -0.0034564572877207895
-0.0012611692846320928 -0.015752288470511303 0.0031211813395762137
-0.002575948443103365 -0.006825928857336229 -0.0005319971033862948
0.010627897959255232 0.009012768584659037 0.00014582544955169034
-0.0024478216033263583 0.006691443744858248 0.0020587115413083406
-0.002071949060781716 0.0028049340268635706 0.0022882734036389885
-0.004794484592742188 0.014053354181338745 0.004511027313490111
-0.003430936522083638 0.0020058745826950653 0.0015686369520384795
-0.001176285632720111 -0.005665418909922997 -0.0021401733963286426
0.004862380621381677 -0.00750342651627026 -0.0006276767125111668
0.0050558659065503015 -0.008718276186564827 -0.003113840127499984
-0.0013851642602467286 -0.00021602886512327602 0.0013717599639088756
-0.002090909237489821 -0.012496966273027882 -0.0018015661770648358
0.009129891743802918 0.007985900487253077 -0.010262374211330494
0.00910525404084224 -0.009222324739768573 -0.0025808567725432376
0.0039890455028740255 0.0035837695673330257 -0.005580093035240654
0.008975167825471734 -0.013593232004422109 0.0013706090744560401
0.0010785332163240505 -0.022168776917391643 -0.0049626798854201775
0.0004249593220481598 -0.015490880590947094 -0.002009637147474791
0.00030879371001878744 0.009570110211522499 -0.001706163841748918
-0.0050744307692040715 0.007544763566008548 0.0019203119171242488
-0.008303202005617445 0.013011864255629191 0.0003558988516156733
0.032304923388364305 -0.02753371938928711 0.025935021567935177
0.016694423980531226 -0.07758766356929729 0.0010897729415176203
-0.020907512526152854 0.012597422984804504 -0.0025994274513904798
-0.031012776746284314 0.0004336362240528333 4.471960120896526e-05
0.08409157363290311 0.08046397369530611 0.02017803806728271
-0.0032244826878695997 -0.010753680590954193 -0.0030481673336187507
-0.004283148732296467 -0.006802512566684473 -3.154736696695011e-05
-0.0008757495583603261 -0.0020481820982785268 0.0012989270328132613
0.008173602482494508 0.003529512393874218 0.00012743833799546347
0.004786560666056552 0.020150574608865348 0.0003514330449527597
-0.005156578984955406 -0.0016404836130343057 -0.0036572132794913284
0.03238584659196427 -0.0035297356189571594 0.0012504332834328883
0.03180615957649534 0.003213951051320312 -0.003791980546983782
0.006667724931626167 0.040070240687241736 0.008755005398308664
0.006038476391098983 0.06943717886272228 -0.014432906305649031
-0.004651526270606255 -0.010949610771106209 0.0002449632838450305
0.0005533202884372408 0.012388061309750705 0.0008894158476936066
0.0011431268986871485 0.017627857712468605 -0.004606067605536688
0.0013837891310291243 0.0038808181553485945 -0.0013540666932744373
0.00027401143393244017 -0.01874134665162352 0.003846450662620332
-0.000842517681665084 0.005267050334375957 0.002050771962847495
0.004263672053150099 0.020170061177883388 0.004526415179549952
0.00918405521734473 -0.004137955582011559 -0.003346902034187488
0.0030740296199115733 0.0064801428560325195 0.0018011844172635763
0.006017462772133703 0.0005256104965852018 0.0011347926176566788
-0.006704236036939753 -0.013705311523641536 -0.002009798040449259
-0.003189670124964682 -0.02459198621511639 -0.002570840916512539
-0.018474418578939375 0.03943240789185953 0.007247518669784469
0.014537913234952696 0.0061508439125865936 -6.70397000188208e-05
-0.01137634368191366 -0.0009207346432699162 -0.0002234668130251277
0.03655197682790373 -0.042402738786316674 -0.0019046478963292896
-0.01628339968325304 0.0001860721045205775 0.0021703947255554577
0.000842793294522155 -0.007160231138367011 -0.001238090831573669
-0.0048810537336074315 0.018292958787229942 0.0020625254474737065
-0.0059367836473409345 -0.010237786002660364 0.0006036092354558168
-0.002391023219650778 0.015608870063578832 0.00045273169263375786
-0.004980710614549677 0.012693141273228046 -0.0018747575406322281
-0.002542477478963963 0.006229595818423777 0.000882054906420103
0.017375662654081667 -0.02988234550516805 0.006650839145445234
0.0006148991405381328 -0.003325057517259186 0.0006652167776585333
-0.004146579818433096 -0.007065842067936401 0.001517465933382937
0.0046068302190896936 0.010337215011978613 -0.00010129256955207729
-0.004964154522754118 -0.008194020381794103 -0.00014500274602659353
0.004934329516144547 -0.009142113210017271 4.968954529589828e-05
0.006804169677755764 -0.008613964239759834 -0.0005002292295908584
0.0033078123687090046 0.01080041329155925 0.0011449997202752527
-0.004618262264705997 -0.010089766867569402 0.004229677725463522
0.004565662713365781 -0.012374503054111755 0.001745183377093484
0.009805544732209319 -0.006648710030991486 0.000878331435369976
0.0003569706202008162 -0.0037227256461005143 -0.003417318085372212
0.00018890717533453716 -0.0025541977205551024 0.0013422896045205553
-0.01348858703698644 0.012920059327813337 -0.001380175980182815
0.01250261276773512 -0.03385157029726898 -0.013693576650178615
0.01799771319865675 -0.026449721600771123 -0.011223631682935869
0.006570665551971484 0.027854195548150152 -0.0054919386186440995
-0.00033258802256580093 -0.030901471105212214 0.006105691478144274
-0.00257408336001778 0.017449528013316697 -0.0033188406303961675
0.005668962548093181 -0.010467918855877894 0.0036848238879091054
-0.011340185576454337 -0.024735262709510864 -0.005442728019409475
-0.0045122296145732824 0.03181376044288342 0.007708563383218039
-0.0036608411695330367 -0.01613800292803101 -0.0035636059338678638
0.0005950443111858384 0.019364712970153124 -0.0030695476515677266
-0.0037652258770584424 -0.009596949518390742 -0.00010469821611719553
0.01575779652351604 0.018634162670096197 0.004239434998950869
0.00028208363905017755 0.010472443458323374 0.0013210449149586138
-0.00236864878776724 -0.0008210153393833579 0.002048215623111312
0.0005306385824979849 0.000717153954010534 3.156834325708086e-05
0.018593790743344562 0.006574171880782486 0.005599943255387582
-0.004584661958590385 0.006500608030433308 -0.0026725466763047436
0.01318833487493795 0.008062038327270626 0.0035381139475810126
-0.004042609003031098 -0.04442592793846064 0.011305858177209761
-0.005891211955939403 0.00630028926350485 -0.007318783121140935
0.002499446114085074 0.0039060672508138194 0.0007558633687047427
0.006575222223327814 -0.010067169553881272 0.0004833842566679839
-0.002630106389044307 0.019481257138655825 0.003078353347757302
0.011686324055801806 -0.00962263644288865 -0.002766007430490682
-0.001855307860156713 0.008181459627816181 -0.0012707133969755912
-0.0066052268538855895 0.010215373978508082 -0.0013678484877622645
-0.0011172767973787565 0.005301615695120241 -0.0018125123710008599
0.007236224782358874 0.005233829857021671 -0.0006598000396182411
-0.002530639798591486 0.008815192582588257 0.002308243781511753
0.006770317361585912 -0.013511951284707578 -0.0073908507985496474
-0.005712540288899554 0.014539480140601592 -0.00660079833717222
-0.004463609623466719 -0.004734785761249541 0.005218323732140566
-0.001201439513072664 -0.02626069946841416 -0.0008539149946607895
-0.005474220851593869 -0.01576895554165806 -0.0032224069849969422
-0.010624398439490148 -0.028359168204720106 -0.0012411556086606413
0.010021903104827172 0.002560473191827014 0.0009789793611411127
0.005815535804048017 0.0006508306376577801 0.0005522272376785261
0.0036164763342791603 -0.01211283646973976 -0.003099426129411207
0.008451141999667702 0.006132058480666494 0.0032126253401489335
-0.0005392564651033832 0.03274599540646156 -0.007830161353704181
0.19081573812618857 -0.2190099876665041 -0.02208427043250721
0.11733178174408228 0.0447182206918841 0.027912188625306856
0.19590316614058323 -0.3814918251136392 -0.03824883186267011
0.009755039514693494 -0.02401550320915192 0.00600985291243734
0.048001322128932246 0.007412031621189837 0.020697362214241018
0.12118618554182975 0.008962041578058914 0.01963761035606997
0.007975387305520101 -0.0508356749713471 0.0210112352511262
-0.04528883033264072 0.06302873142085061 0.012813310039967841
0.014437967084028582 0.02535921762000711 0.009436536426853348
0.009597352754040833 0.018978695969370643 -0.0012781799682730188
0.0303083745549311 -0.06213632453749618 -0.016127350714218256
0.010927849337788622 -0.06106098876735594 0.001940686727135493
0.013424389632067012 0.014666565591221125 0.0023996963476760748
0.007739558446375306 -0.029652626882042094 0.005897693892706147
-0.002343615295036416 0.0503892315622008 -0.003803651937812345
-0.003119254531324802 0.01588070404529794 0.0029610098948134067
0.009700452748166243 -0.017986959923605876 -0.003955756173940356
0.0018101589310313437 0.009111049634685519 0.0009543339529773583
-0.08970948064670974 0.15636119648191021 -0.02845194225333196
-0.0015618337253714251 0.03976480986014067 -0.006784280937835493
0.005964714127114661 -0.037135420138104155 -0.0045589763810085625
0.0014569245431707266 0.008784741615936257 0.0014377043519348417
-0.002521350883442202 -0.009179463635490293 0.0021923285218130957
-0.0033114949735896454 0.0045360249172750255 0.002158299114579747
-0.0031364850356654086 0.005216993463038809 0.00029814879194248574
0.030464795228506612 -0.003445223955067733 0.000371496414270215
0.044657961842892537 -0.005010784319610128 0.017709487501639906
0.01183732476921697 0.007677345174534752 -0.004013283138054028
-0.008406076366785238 0.018283490975099268 -0.008113536382012869
-0.012062680575834052 0.004507392726285913 -0.0011188507528817045
0.09043311276813475 0.05844278663167928 0.022781237614678308
0.009307448804118344 0.013309255625044985 -0.002578676110896542
0.0072892401679388 0.0016608246982317372 0.0007222451083711266
0.0010434262903141775 0.015175210454246843 -0.01408925299694771
-0.015278441637392528 0.030714457152501096 -0.004077712910472098
-0.022804127629401535 -0.07119651139116896 0.001685977540313791
-0.010000187396957535 0.01025999855804059 0.001987630652398882
-0.00304814510072232 -0.0056731720156802225 -0.0013476329677344972
0.018239333616223662 0.002579578435833803 -0.00433338269203829
0.0007264810176579365 -0.041598494372182424 0.011217725964050351
-0.0036570926707640184 0.004650791324563501 -0.002613131298963999
0.008270965527085625 0.02257430314952221 0.0022225955020065287
0.015567570298389722 0.043366266999043765 -0.00768337662490608
0.0038787687345399505 -0.04028939137962922 0.0008059230176472628
-0.00723367380502773 0.027783196345817003 0.0032926014243119103
-0.0055584960697511385 0.013586842253220469 -0.005258255011093081
-0.015290738551613177 0.031765963961685045 -0.011279244937775804
-0.004536593998418925 0.014763113544334296 0.00289104186762551
0.0031084320840962204 0.006277359186544971 0.0025541529941087724
-0.0017110084540598034 0.006080362872295018 -0.00031516632936087654
0.0038062220243827 -0.0029201107041521685 0.001829452756229289
0.08458212807908085 0.037676288057243976 -0.02038699098301118
-0.05552764065873358 -0.019960143792231322 -0.018260399770763724
-0.03738485235613882 0.24859331265665552 0.03220299278160028
-0.029249123486829648 -2.335871168343313e-05 0.00035159207182738114
-0.0068230513683502254 -0.013078688431344448 -0.0006355750055667776
-0.03096702533296088 0.005430952042995515 -0.00922932862487294
-0.0033885455394082023 -0.0022612559240237306 0.007983055898228519
-0.001075031541021539 0.00653160283570137 -0.0007672565084217608
-0.002650184049545394 0.011206785338304348 -0.0018505449864243404
-0.0035637150517721415 0.00555109456618617 -0.003123731635978597
0.012430544889236847 -0.033730027011741145 -0.007232746168543346
-0.017264371532793317 0.03964418163425182 -0.0018395553727085043
-0.006919133362733942 -0.030243880496743245 -0.0003454072508130507
-0.06142396200169396 0.12909846602672842 0.0023796604741473395
0.040614998226318144 -0.044248074083729404 -0.003181378219169935