# vtk DataFile Version 2.0
Really cool data
ASCII
DATASET UNSTRUCTURED_GRID
POINTS 584 double
-1.0 0.0 0.0
-0.9600374798207896 -0.027590413451835553 0.04
-0.9589620457797374 -0.028177574718636023 0.0
-0.9553815213922792 0.019675326217199102 0.04
0.6719637381218919 0.02110482676547816 0.0
0.6414775595248179 0.020020515529780993 0.04
0.6571281419012174 0.06 0.0
0.6240641012293764 0.022292119262118645 0.0
0.687851041884645 0.021313940245698455 0.04
0.7030120427199962 0.06 0.04
0.657128141901218 0.06 0.04
0.7030120427199952 0.06 0.0
0.6885310613992013 -0.0196061899732657 0.0
0.6720046167250797 -0.020579604775701428 0.04
0.6407079554435648 -0.019738458112036637 0.0
0.7171469290115033 0.021165332718839136 0.0
-0.7921016077200962 -0.06 0.04
-0.7604373514312079 -0.019298436119384588 0.0
-0.7479973317145423 -0.06 0.04
-0.7479973317145417 -0.06 0.0
0.7030120427199962 -0.06 0.0
0.7030120427199952 -0.06 0.04
0.6571281419012174 -0.06 0.04
0.7479973317145417 -0.06 0.04
0.7325903506195701 -0.020274227246539274 0.0
0.7176321617908783 -0.019839353713154383 0.04
0.7604373514312079 -0.019298436119384588 0.04
-0.8488906624897727 0.019856366527450334 0.04000000000000001
-0.8052789150181434 -0.019306901564895652 0.0
-0.805541091654972 0.020469431563422978 0.04000000000000001
-0.8203038938742353 -0.020636147377884773 0.04
0.897529295217204 0.022569895749215793 0.0
0.8488906624897727 0.019856366527450334 0.0
0.8569454102823642 0.029774901726562965 0.04
0.8777357995360431 0.06 0.0
0.9553815213922792 0.019675326217199102 0.0
0.95349853104827 0.02147987272312249 0.04
0.9103536180674616 -0.021283841161765512 0.0
-0.5450807564691462 -0.01715484187473429 0.04000000000000001
-0.5372746904547943 0.02439300391790418 0.04
-0.49049502097572617 0.000359712426279548 0.04000000000000001
-0.5409244119327052 -0.005150142234760652 0.0
-0.48901428549955095 -0.02776609156780287 0.019771763033692314
-0.4642419910175897 -0.06 0.04
-0.43891524330526177 8.673617379884035e-17 0.04000000000000001
0.7479973317145423 -0.06 0.0
0.9600486361512215 0.06 0.04
1.0 0.06 0.04
1.0 0.06 0.0
0.9192992165657531 0.06 0.0
0.7479973317145423 0.06 0.04
0.7309057796957548 0.02177174945441851 0.039999999999999994
0.7479973317145417 0.06 0.0
0.7613659684934695 0.020945326906433456 0.0
0.7736855084518748 0.020914979208800512 0.04
-0.8570647961856006 -0.015388027432140593 0.0
-0.8569454102823642 0.029774901726562965 0.0
-0.8649535140731797 -0.02016838668923704 0.039999999999999994
-0.1726925416005594 -1.214306433183765e-16 0.039999999999999994
-0.22806385632140147 1.0755285551056204e-16 0.039999999999999994
-0.2006519843784229 0.06 0.0
-0.22806385632140147 -1.1796119636642288e-16 0.0
0.438611990705585 -5.252150912499892e-05 0.04
0.41358849559293387 -0.06 0.04
0.4135884955929341 -0.06 0.0
0.4642419910175897 -0.06 0.0
0.4782715374234063 0.0302584611690398 0.019894876072988572
0.513903464641242 0.06 0.0
0.49049502097572617 0.000359712426279548 0.0
0.46424199101758934 0.06 0.0
0.46424199101758934 -0.06 0.04
-0.8164681441220105 0.022269284396602723 0.0
0.48912437490067595 -0.00041996788971368666 0.04
0.4642419910175897 0.06 0.04
-0.8353421249080566 0.06 0.04
0.8649535140731797 -0.02016838668923704 0.0
0.8973163514988121 0.02144006532192878 0.04
0.5625923446839085 0.06 0.04
0.6103276788742331 0.06 0.0
0.5943416245309461 0.018901239582525348 0.04
0.5790918012159274 0.021628695864523574 0.0
-0.593631917725493 -0.01946781888421301 0.04
-0.6103276788742336 -0.06 0.04
-0.6407079554435648 -0.019738458112036637 0.039999999999999994
-0.6264545933043166 -0.021459100211208025 0.0
-0.6103276788742331 -0.06 0.0
-0.6103276788742336 0.06 0.0
-0.6240641012293764 0.022292119262118645 0.04
-0.6414775595248179 0.020020515529780993 0.0
-0.5943416245309461 0.018901239582525348 0.0
-0.5790918012159274 0.021628695864523574 0.04000000000000001
-0.5625923446839077 0.06 0.04
-0.6103276788742331 0.06 0.04
-0.5625923446839085 0.06 0.0
-0.7325903506195701 -0.020274227246539274 0.039999999999999994
-0.7176321617908783 -0.019839353713154383 0.0
-0.7309057796957548 0.02177174945441851 0.0
-0.7736855084518748 0.020914979208800512 0.0
-0.7613659684934695 0.020945326906433456 0.04
-0.6571281419012174 0.06 0.04
-0.6719637381218919 0.02110482676547816 0.039999999999999994
-0.7030120427199952 0.06 0.04
-0.687851041884645 0.021313940245698455 0.0
-0.029521960903255984 -0.06 0.04
-0.05860957814939871 -6.938893903907228e-17 0.039999999999999994
-0.05860957814939863 5.898059818321144e-17 0.0
-0.08769719539554167 -0.06 0.0
-0.08769719539554144 -0.06 0.04
-0.2823507532564078 -5.204170427930421e-17 0.04
-0.25547572826437986 0.06 0.04
-0.25547572826438003 0.06 0.0
0.38751191920162714 6.938893903907228e-18 0.0
0.3352618020299945 -3.469446951953614e-18 0.0
0.36192316205531716 0.06 0.04
0.3619231620553172 0.06 0.0
-0.36192316205531716 0.06 0.0
-0.335244821032008 -1.1796296425746478e-06 0.0
-0.3352618020299945 -3.469446951953614e-18 0.039999999999999994
-0.38745316199969926 -7.894682722445895e-06 0.0
-0.3619231620553172 0.06 0.04
-0.3092257782484355 0.06 0.04
0.28235075325640757 5.551115123125783e-17 0.039999999999999994
0.30922577824843556 -0.06 0.0
0.335244821032008 -1.1796296425746478e-06 0.04
0.3092257782484355 -0.06 0.04
0.36192316205531716 -0.06 0.0
0.38745316199969926 -7.894682722445895e-06 0.04
0.3092257782484355 0.06 0.0
-0.38751191920162714 6.938893903907228e-18 0.04
-0.28235075325640757 5.551115123125783e-17 0.0
-0.30922577824843556 0.06 0.0
0.6103276788742336 -0.06 0.0
0.593631917725493 -0.01946781888421301 0.0
0.6264545933043166 -0.021459100211208025 0.04
0.4889627886584896 -0.027603176797077415 0.020155725176282127
0.583287522480325 -0.023728770665855194 0.039999999999999994
0.5450807564691462 -0.01715484187473429 0.0
0.5409244119327052 -0.005150142234760652 0.04
-0.48912437490067595 -0.00041996788971368666 0.0
0.3619231620553172 -0.06 0.04
-0.657128141901218 0.06 0.0
0.9600374798207896 -0.027590413451835553 0.0
1.0 0.0 0.04
0.9589620457797374 -0.028177574718636023 0.04
0.5625923446839077 -0.06 0.04
0.5625923446839085 -0.06 0.0
0.7766984080639845 -0.02052537972713625 0.0
-0.438611990705585 -5.252150912499892e-05 0.0
-0.583287522480325 -0.023728770665855194 0.0
-0.9600486361512215 0.06 0.0
-0.95349853104827 0.02147987272312249 0.0
-0.9192992165657539 0.06 0.0
-0.9192992165657531 0.06 0.04
-1.0 0.06 0.0
-0.14473309882269625 -0.06 0.04
-0.14473309882269605 -0.06 0.0
-0.11621514710911887 -1.214306433183765e-16 0.0
-0.17269254160055947 1.1796119636642288e-16 0.0
-0.14473309882269625 0.06 0.0
-0.11621514710911884 1.214306433183765e-16 0.039999999999999994
-0.8353421249080566 -0.06 0.0
-0.8353421249080575 -0.06 0.04
-0.8973163514988121 0.02144006532192878 0.0
-0.897529295217204 0.022569895749215793 0.04
0.11621514710911887 -1.214306433183765e-16 0.039999999999999994
0.05860957814939871 -6.938893903907228e-17 0.0
0.05860957814939863 5.898059818321144e-17 0.039999999999999994
0.08769719539554144 0.06 0.04
0.6103276788742336 0.06 0.04
0.5139034646412424 -0.06 0.0
0.9096368506350345 -0.020963842829632554 0.04
0.805541091654972 0.020469431563422978 0.0
0.8052789150181434 -0.019306901564895652 0.04
0.8203038938742353 -0.020636147377884773 0.0
0.08769719539554144 -0.06 0.0
0.08769719539554167 -0.06 0.04
0.9192992165657531 -0.06 0.04
0.8164681441220105 0.022269284396602723 0.039999999999999994
-0.9103536180674616 -0.021283841161765512 0.04000000000000001
-0.8777357995360431 -0.06 0.0
-0.9096368506350345 -0.020963842829632554 0.0
0.8570647961856006 -0.015388027432140593 0.04
0.7921016077200956 -0.06 0.04
0.8353421249080566 -0.06 0.04
0.7921016077200962 -0.06 0.0
0.4135884955929341 0.06 0.04
0.43891524330526177 8.673617379884035e-17 0.0
-0.7921016077200956 -0.06 0.0
-0.08769719539554144 0.06 0.0
0.14473309882269605 0.06 0.0
0.1726925416005594 -1.214306433183765e-16 0.0
0.11621514710911884 1.214306433183765e-16 0.0
-0.029521960903255984 0.06 0.0
0.0 0.0 0.0
0.17269254160055947 1.1796119636642288e-16 0.04
0.14473309882269625 0.06 0.04
0.0 0.0 0.04
0.2006519843784229 0.06 0.04
0.22806385632140147 -1.1796119636642288e-16 0.04
0.22806385632140147 1.0755285551056204e-16 0.0
-0.6720046167250797 -0.020579604775701428 0.0
-0.7030120427199962 -0.06 0.04
-0.7030120427199952 -0.06 0.0
0.25547572826438003 0.06 0.04
0.30922577824843556 0.06 0.04
0.25547572826437986 0.06 0.0
-0.02952196090325599 0.06 0.04
0.2006519843784232 -0.06 0.04
0.14473309882269605 -0.06 0.04
0.2006519843784229 -0.06 0.0
0.14473309882269625 -0.06 0.0
0.2823507532564078 -5.204170427930421e-17 0.0
-0.36192316205531716 -0.06 0.04
-0.41358849559293387 -0.06 0.0
0.5372746904547943 0.02439300391790418 0.0
0.5139034646412424 0.06 0.04
-0.5139034646412424 -0.06 0.04
0.41358849559293387 0.06 0.0
-0.7171469290115033 0.021165332718839136 0.04
-0.7479973317145417 0.06 0.04
-0.7030120427199962 0.06 0.0
0.08769719539554167 0.06 0.0
0.029521960903255984 -0.06 0.0
-0.02952196090325599 -0.06 0.0
0.02952196090325599 -0.06 0.04
0.02952196090325599 0.06 0.0
0.029521960903255984 0.06 0.04
-0.47805793986482265 0.03008719549728311 0.01940109733029794
-0.4642419910175897 0.06 0.0
0.6103276788742331 -0.06 0.04
1.0 -0.06 0.04
0.9600486361512205 -0.06 0.04
0.9600486361512215 -0.06 0.0
-0.3092257782484355 -0.06 0.0
0.877735799536044 -0.06 0.0
0.8777357995360431 -0.06 0.04
-0.41358849559293387 0.06 0.04
-0.4135884955929341 0.06 0.0
1.0 -0.06 0.0
1.0 0.0 0.0
-0.14473309882269605 0.06 0.04
-1.0 -0.06 0.0
-0.9600486361512215 -0.06 0.04
-1.0 -0.06 0.04
-0.7921016077200962 0.06 0.0
-0.9192992165657531 -0.06 0.0
-0.9600486361512205 -0.06 0.0
-0.7921016077200956 0.06 0.04
-0.7766984080639845 -0.02052537972713625 0.04
-0.5625923446839085 -0.06 0.04
-0.5625923446839077 -0.06 0.0
-0.877735799536044 -0.06 0.04
0.7921016077200962 0.06 0.04
-0.3619231620553172 -0.06 0.0
-0.7479973317145423 0.06 0.0
-0.8777357995360431 0.06 0.04
-0.4135884955929341 -0.06 0.04
-0.46424199101758934 -0.06 0.0
0.513903464641242 -0.06 0.04
-1.0 0.0 0.04
-0.877735799536044 0.06 0.0
-0.30922577824843556 -0.06 0.04
[...]
POINT_DATA 584
VECTORS displacement double
-0.05004531200844951 -0.023045779912439935 0.06915749281285177
-0.04784306795042671 0.007820724449842723 0.022656310410124343
-0.0790347685530072 -0.0035401805754123124 0.012936015889318005
-0.0023165689141681264 -0.003723869085232343 -0.002991216967213156
0.02016428529569001 0.008799314250470938 -0.02247031797859145
0.011631047021588419 0.004696767097144599 -0.03376837544446157
0.008455029466561409 0.008457076753935163 -0.029093446866856283
0.014786566375935617 0.010347940724225556 -0.032199674419073794
0.007564618090713833 0.0014424358393336477 -0.00853493881405965
0.0023293828946940615 -0.005077263013304639 0.007156124340147933
0.001989982690646131 -0.0009813130242800978 -0.025906585831749148
0.013016140067220402 -0.0021873669828583694 0.0091846215453002
0.023641475910028343 0.002192739294243167 -0.013287261710394948
0.013081767181265837 -0.0008309358219734058 -0.025743788790000444
0.019282302948564742 0.011178410067246606 -0.03914702999840396
0.01939194896569339 -0.007138458231212208 0.018095505488096325
0.00960379817086535 -0.010973912359313175 0.03755486796260536
-0.05721709048164953 -0.001898279534072542 0.05292279831532305
0.026628304304386206 0.002830932380991717 0.035613066435085855
0.0070665084984458245 0.011793982959409009 0.04555218069694674
0.004921261303430827 -0.0009148577644766179 -0.008207866169656798
-0.004599775639493843 0.002032072305250359 0.004561649694662653
-0.0013295942329468098 0.002864224363044496 -0.0397686383854283
-0.006229682479877539 -0.01792549090385518 0.02617231992807847
0.02326603497900381 -0.009614952684729453 0.02330649971457979
0.011229744549416457 -0.011960209691327056 0.013032461544087246
0.009922845170224962 0.00034657685838201995 0.031421430191175936
-0.029696924273491458 -0.0012965179292649712 -0.04317812920058292
-0.06035762564236108 -0.008332364959617757 0.021399642914952288
-0.025080901139360175 0.004253884881781405 0.016410127046144606
-0.05266049971733579 0.003222426798289032 -0.002267320140997818
0.009884642805671898 -0.00455328410137253 -0.03534558759131489
0.011013139479627487 0.006566457481850945 -0.00951325089301787
0.00399060738763341 0.001210364390468083 -0.017901317354363195
0.00928648639790086 0.0028775783833474796 -0.023070115008206642
0.007622791098269738 0.003566716326530502 -0.00017544620363765223
-0.005011913626321468 0.0029415462186920542 -0.0033910404638273868
0.02115945577440896 -0.012043133913879149 -0.029564071140591123
-0.009118600288261208 -0.004149433643398162 0.019804240778486602
-0.013452366872165103 0.009402522154679578 0.021049696629659012
-0.02055921147045709 -0.01670526894290237 0.008683858287779359
-0.022681103845632922 0.006239174156681897 0.018386109497273942
-0.023387669885107265 -0.0151766200470357 0.008787407944245951
-0.00574482732465298 0.006466231360191504 0.005702761502243275
-0.014175345922467117 -0.012506615286275887 -0.012557175503032805
0.0038880449130264108 -0.003117379313416897 0.017400638585702715
-0.0019014546686001688 0.015240193089995677 0.0024272556423765405
-0.011227212063150917 -0.013208739473507342 0.03223777827334116
0.009712994275808887 -0.012097469031869595 0.03200302363005826
0.015429327108561272 -0.0005356544153588542 -0.0275609296357916
0.0010345838091778577 -0.00215767707030729 0.037901181360786386
0.0054599163741040485 -0.011392994343403733 0.027003343586513608
0.009136066968826684 -0.0011414373068386189 0.04609484286795986
0.014875091039465192 -0.0018991896462541484 0.04345516674487246
0.010330822759264559 -0.009353430915578158 0.037373113084045236
-0.06604560829468681 -0.014362934681031616 -0.04510749716514237
-0.03241234126439263 0.008461857480482992 -0.05354116984777111
-0.055662977135647974 -0.0015910202981611048 -0.05697383557541991
0.008536364959321557 0.00728434774960281 -0.030563170793310838
0.008965364834896376 -0.000723692663217762 0.012671879243972294
-0.007264498036875407 -0.014682728100249363 -0.026683806877714617
0.009925079981389985 -0.010112951252887 0.0051978675017773715
0.008684993587232646 0.007143819808207656 -0.004468975293431832
-0.013838927602620284 0.010158877046238756 -0.02820626909085008
-0.00785124680137845 0.010945001676516705 -0.022440706758372765
-0.0018707754030207178 0.002696074288669154 0.027458279755629603
0.009175879129714607 0.0032287523219812165 0.030874676211363913
0.00184887950264613 -0.009350859928951422 0.03259043504259354
0.011625764101859063 -0.0046029706175608675 0.03940965168171899
0.004349191494036147 -0.0018305391257642878 0.014291171733519157
-0.009268558598166398 0.002584590447570629 0.02153932018447642
-0.03535388680725248 -0.003875574966800171 0.0018678410380010579
0.013295405011932222 0.0018570892217708304 0.0341121876401026
-0.0024004303920115216 0.007056657691873615 0.016735985820891475
-0.010573231063941042 -0.01426125020527362 -0.017503946438827432
0.02271963546174467 -0.006349133810713123 -0.02483705118598147
0.003372529195506168 0.0006336843675776408 -0.032470555797658555
0.005976202212440656 -0.0006431426722814646 0.006698829972416182
0.0020890524873517506 0.004621789807089587 -0.025495580230050392
0.01525049563184482 0.0005550376076134445 -0.013087684992468339
0.010714393025715252 -0.00233564955912825 -0.0003463352151247844
-0.024491648626375085 -0.03412292661378133 -0.018754599566167613
-0.005302778043407413 -0.011572004508662694 -0.04177474403527642
-0.02613055089881918 0.035263732544344895 -0.03665913146185902
-0.026618961028118785 0.03067890800420448 -0.042601496012611276
-0.014868246983427803 -0.002726836860283743 -0.0471571039699339
0.04424312535801162 -0.004383530274878979 0.008953152422479665
0.012839673615962225 -0.006780266786306133 -0.017612321587896607
-0.0034374144281226183 0.001548529161498434 -0.030712685788814097
0.016258098536532827 -0.01573319474752187 -0.0063500700229547945
0.013672752680883018 -0.03653606111388478 -0.0043430652064019686
0.004527268156065382 0.07992010612395234 0.024061927669572106
0.05997790968518115 -0.004542813229523988 -0.006852259876265246
0.0016378312244263707 0.07947211192019044 0.055344195019585866
-0.032343705434913564 0.013526330965016252 0.029498488666879895
-0.05721789731572843 0.02576309082434218 0.030959675690613038
-0.04510974088438864 0.04897193783610565 0.058006468709877204
-0.03603038530731169 -0.009760310259791453 0.0592125280651432
-0.02321940675587687 -0.01272971430276242 0.05631618629968156
0.031702093344987664 -0.05755147963836696 -0.027998083609716135
-0.015776695323016808 -0.019747010457886 -0.01274033401241413
0.017043327250589255 -0.011106245463872186 0.020987690700739848
-0.041321898236185324 0.005491577891850489 0.0106825835686373
-0.0009354329641810722 0.0037139549656266587 0.009783359384343649
0.007730135994281191 -0.017900589360124706 0.020531092636889903
0.011870284476333304 0.0027118254723980414 0.021649724412188306
6.410232595037817e-05 -0.0012158961178501582 -0.015810992175820087
-0.004933062401153797 -0.013323145839293053 -0.010300921200605188
0.006206538282203448 0.0020639886257436666 0.03980859875325556
-0.005853818799563767 -0.010129722904797302 0.008139269353466629
-0.005942221929398774 -0.03040522317560745 0.0005697889510261652
0.004158060566685994 0.004688878902419392 -0.039271871801947356
-0.007845589989288616 -0.008707174163750622 -0.02562127263642266
-0.013854199366389774 -0.014290491815315564 -0.04354930558373239
-0.015706727873891976 -0.019569203323237794 -0.04586371302944514
-0.015914586897190858 -0.014977988748471905 -0.03045661464645264
-0.0005452390126860397 -0.0010742391136206214 0.022829745429521098
0.0004578296400997063 0.013266576955405545 0.02144227879023104
-0.005769167693543381 -0.005648327477832265 -0.012905498888718892
-0.007241901067525562 -0.0019033721175987124 -0.01881706312733471
-0.004867280321206787 -0.006942947765652017 0.007847361031025585
0.003981752764492473 -0.0027010810061733467 0.028908420643576106
-0.027047938847379153 -0.012313920605412015 0.015759912072215856
0.0007074651713242531 -0.0002613020430480028 -0.017938045082635766
-0.019799783836641563 -0.003349645854522403 0.01781606287935464
-0.022091347945711572 0.016471966248704444 -0.03747439634151462
0.007491029939138491 0.005404335308363312 -0.03577195428904705
-0.023258516776545272 -0.012629116002238996 -0.012796535187857666
-0.004612649829635232 0.01316293176149081 -0.017045154961164346
0.004981491714075256 -0.015144278316066866 0.03233844101076037
-0.00675758092739596 -0.03069471498402807 -3.461343031140786e-06
-0.0022213232993493763 0.017658122662593055 -0.03702826579106766
0.011090600006625715 0.010795590000245265 -0.016036887949157804
0.016286139084049477 0.003017907619927451 -0.035098679093016893
0.008441307527807543 -0.0036894218901411674 0.04273926260545381
0.012516220905734083 0.006247978137104286 -0.004581055637954395
0.007140602072235316 -0.013099199274312546 0.035695019420991424
0.0129908827535598 -0.0041713134322292796 0.03268195001591998
-0.023355877731812764 -0.014704150780208562 0.008302655041515472
-0.01801659474346503 0.016034671929230117 -0.036330505416138435
0.00494514575433054 -0.025164371076172833 -0.001635988162213852
0.02938436071016449 0.004594533127219691 0.0016163794469270965
0.007497622121337948 0.0085185510756618 0.030411189146651838
0.01597898336872745 0.0014457999502440772 0.0017588901647768828
0.0024080872519641958 -0.006081066362663197 0.014815708667402864
-0.003320987571802157 -0.0032093471536846076 0.016071276684928075
0.01921516481817323 0.014725307714389877 0.030937095515910142
-0.024028661151956333 -0.02162441047746126 -0.015558023580735587
-0.026298177794479734 -0.028670047570232126 -0.017542851146160235
-0.015576995660390953 -0.012925869597580658 -0.013250978315952216
-0.032766851093524556 -0.011493643737301761 -0.016968372876503136
-0.019897435237881796 0.012365854106302213 -0.0555674854757414
0.0025379020326829526 0.0039516220215301285 -0.043780359879888646
-0.005757196969058676 -0.02215923505753687 0.032702626425637864
0.0010211982579171651 -0.009581727272385793 -0.04052991022803562
0.017807066761957317 0.0024292643426782113 -0.03542993231035906
0.023816680264017703 0.017997308549847952 -0.013854283812709952
0.019867990035101438 0.009123576661659184 -0.027793411749681227
0.009320919829247824 0.00735065893475588 -0.01530495648990678
0.015647837525632733 0.004896732371170265 -0.021400404100211365
0.00895238769142107 -0.02442314035760426 -0.003522059105938854
0.01707292627506364 -0.009473255962459697 -0.0059033305881655
-0.034033014320511076 0.020403386328789127 -0.06820751682299832
-0.014760448587789847 0.021960757606007294 -0.06937263023595965
0.010437465094997926 -0.006449972886328418 -0.05071081910036001
0.0161118189166452 -0.004098305653987317 -0.019884118968392765
0.01678974329978636 -0.01625374564125759 -0.018365467005048857
-0.0075777168121932675 0.01140979635771639 -0.015132093469732849
0.0024163396212981006 0.0017545244816322963 -0.022855962939813557
-0.006516238120921369 -0.021233402856081607 0.058062611514011465
0.010453441525255645 -0.01408593544193339 -0.030883959417368757
0.012087880891934648 0.012513111620136057 0.02593888611394668
0.02213318193299918 0.002428519663626859 0.01668913247282293
0.025689115096631084 0.009603233304338628 0.005170521700125227
-0.009174940552009665 -0.013149750640181888 -0.038659414140526226
-0.004602031231745257 -0.008318609853683372 -0.030557561816018725
2.1487792217493588e-05 0.006055983688775733 -0.024849224293562296
0.0068820657860914625 0.002473258012690317 0.014326127640612914
-0.04291339403053793 0.008101973066273417 -0.05912321059645823
0.016039287437334904 -0.033596634906378535 -0.04503843384631878
-0.060899821170779314 -0.0008954104917175682 -0.05553855254486307
0.018220044691474077 -0.004637579626524955 -0.022086295994955596
-0.008386068301816593 0.017103189791435717 0.013850995318330537
-0.007125916755057568 -0.009339653312960966 -0.009904330314876891
-0.001315137105762274 0.02782899442086758 0.012566047100895395
-0.006109318433284054 -0.0012675233071985214 -0.026893397801139664
0.012866691130092485 0.006844152014813092 0.0011552905296255815
0.0032831748180956618 -0.017085872973737596 0.04367590102379757
0.014651143298776764 0.04359473837863302 0.03666590200445374
-0.013629318235703368 0.03472733402491691 -0.012185673859631459
0.0047854480113945505 0.010269863113482375 -0.010384592050061365
0.012736789783290552 0.005318670068995688 -0.03916176642019471
0.004968175710544827 -0.0006833762813124645 0.06300506797109927
0.018849083578405135 0.008136526379297461 0.025306200756859017
-0.003127652785528459 0.001115432963613474 -0.015346329872222304
-0.019466619933608313 0.013306344464768667 -0.013208947310636918
0.019361959375843736 -0.007468221278698106 0.024059695400530153
-0.020071781432339543 0.014456166514285218 0.016889908934491618
0.00126275241902642 -0.004541144988489615 0.028620814777199282
0.0021731874625934137 -0.005808517704028567 0.03685786487548333
-0.05491653318479469 0.02481595513180622 -0.030561948916514307
0.014813895784833981 -0.0223729591590409 -0.009640886817343635
-0.01082358507839441 0.012100468937254463 -0.01446765897728075
-0.018866819567232507 -0.0006184967634574806 0.032069787915245555
-0.018018909834721136 0.0021582827393602363 -0.009888757576896817
-0.01838311178861884 -0.010473559992252822 0.03284588181900268
-0.004392561984161229 -0.012221119707843455 0.04571002081263151
-0.0224937584741301 0.012049026528095221 0.013723316442302968
-0.020151587181458753 -0.014709332974444449 -0.029016057626788768
-0.025246710737843934 0.006759481431292518 0.017443603871216053
-0.016461871150198957 -0.02245418116108984 -0.03989693940530056
-0.003599750940995375 -0.014010589236529392 0.026143343215001887
0.013495363847484981 0.00729393493127156 0.016508977873041283
0.007231666978800088 0.008283938510013451 0.0014348550335502581
0.011488911767736936 -0.013006444969814093 0.030574284375502154
0.005359262243744945 -0.003071668826106952 0.03134072024831843
-0.0026347053094171883 -0.009317848345151406 0.03149486509241904
0.00032975753777100353 -0.008328662117981347 -0.035188948594964575
-0.02237019614819106 0.03724610061531296 0.03316066246090993
-0.02140039587082291 0.02450849930623183 0.07329643645149224
-0.01679229002064519 0.02270131871273877 0.045029806059088955
-0.008939365659213133 0.030474309838239254 -0.007106511227607148
-0.0063371479050135324 0.008867714388713683 -0.008190309836801503
-0.0024644506648305283 0.022635677200650826 0.001406910069610079
-0.0004423181016421147 -0.0015457902720912068 -0.0025702772800463266
0.005613071116136746 0.027729614732746852 0.0373703034580679
0.00722134767175362 0.0068789705079518836 0.02678316900414582
-0.014641833501004503 -0.012946318820490015 0.005379229716079488
-0.029520643631382223 -0.02033659363736963 -0.015196597893759722
-0.0032173276299862223 0.007181767784387891 -0.035621006925832546
0.010925806892773657 0.003940186512158084 0.0299169789240179
0.00539780492863963 0.006787299707911914 0.002640639695923647
0.02175318993343528 0.00886048918417078 0.001371785504255316
0.016563398890620716 0.004345980559656579 0.04590500565508377
0.0018596780111275982 -0.007427809513824201 -0.030782983811561374
-0.010295408369942919 -0.007813604866299211 -0.026612281097915885
-0.01155351343203039 -0.003628533171788902 -0.04815917321209585
-0.02661971833804427 -0.024033645790818164 -0.04994484971053667
0.026707301556589163 0.006670185478615442 0.025922145120755535
0.02117606370375097 0.008726012293656524 0.026385653118402744
-0.00018926821712741555 -0.010659694531757434 -0.014885065245594867
-0.07374585050043692 -0.06913854909589828 0.08878488819442547
0.0018248018812418213 0.07438003418889992 0.030694949800209103
-0.037376641354623895 -0.06595429554563093 0.09277147750209525
-0.014464363517101751 -0.005457507295719804 0.04136078813529086
0.012088627147556368 0.007805027279540875 -0.043256313702287025
-0.031205917841139682 0.03568228100450964 0.020629342123649662
-0.003950778975712042 -0.003928772685658688 0.03628766382338163
-0.047673081271448974 -0.027284883910652046 0.04652059154579242
0.011972536059199406 0.011397320699639406 0.017719344107832522
-0.003764796946208077 0.0030974859476048514 -0.0033282964364618525
0.036471570853491335 -0.027607706871739846 -0.045779031561981445
-0.0018103775198082164 0.010299812348704777 0.035161654291315514
0.015474759429573468 -0.0056872516883702835 0.02271267085803046
-0.0321459953321209 0.035159749841761304 0.07437322745651605
-0.0020921457694632736 0.01752527381178573 -0.04975393818084291
0.005889999205600613 0.024381058379619427 -0.008805108535162974
-0.011510647834579434 -0.013737022409737565 0.006850929628532039
-0.0024490973532005586 -0.011934803941341759 0.045669587425354416
-0.022292068812601748 0.014891231077449373 0.06130428622388622
-0.013436878870957928 0.027009580499900338 -0.06088607496571104
0.01531076392646526 0.010488093712676333 0.03768122176240191
0.020087289273428583 0.01222293697815408 0.03893024384685978
-0.0029971326095661046 0.03445776312766062 0.01740645801019125
-0.02314486974561489 -0.01621420069713184 0.05237129624643131
0.020296747503902233 0.0012342476752636702 0.04089713660084149
0.012706231239526642 0.0069290487896961255 -0.004596167236028128
0.049529614205102296 0.0019648540069492487 -0.0507583941751646
-0.014576216491936063 0.010295902313475106 0.040775833761690104
-0.0375120493648644 -0.022427234794905992 -0.007624005908985316
0.01427398267211598 0.008423108256149411 0.00133776404773815
0.023664211638764716 -0.0010914014923659916 0.03479920649074105
-0.0034452134384889877 -0.007511135836231565 0.03107350912409854
-0.009342548916423398 0.011452202129132661 -0.02019619046715362
0.00215928162631839 0.05982240073408414 -0.06467820549480527
0.005269838481810713 -0.0037018366124175715 -0.029813804738195827
0.00425998701066941 0.0002027537246404834 -0.026046684343116855
-0.017586690159696407 -0.008080727870162556 0.049109806929473976
-0.0017831000346897627 -0.0017416036046465084 -0.01096017283130543
-0.01544480205324251 -0.017515861817557078 0.01607510892614139
-0.0075904661288103805 -0.009528264074247178 -0.02022907043872432
-0.013072879175323933 -0.002477951633613193 -0.01706885540502176
0.004164277033149973 0.010716697652073648 0.0076648878175874634
-0.0014532162464742928 0.002660138278864286 0.0032302117076911385
0.004203721799864182 0.017468225738223757 0.04140539711198244
0.012809201525964313 0.00010521690321963808 -0.024584524770903893
-0.0016802966150871216 -0.008755728056523344 0.006321708702502319
0.023440129572151826 0.03305109169173137 -0.0552754887842204
0.003591898603977265 0.008975616793847282 -0.0404614245429286
0.019731746971300833 0.005721323408944735 -0.009864576713111394
0.019798716719473 0.005411057581393844 -0.01891672156997368
-0.016299488952347806 0.020876338628076366 0.02735970118763253
0.04650520764314975 -0.04332753822859166 -0.05687810769959623
0.0045016200511024465 0.0020284635651675095 -0.007727854353619072
0.0328636387550177 0.01170695103255104 -0.02484386417613408
-0.0032571399776953314 0.017291002439360815 0.012084354989330429
0.018983695694139376 -0.007805943790683316 -0.03809130412620327
0.012144231362700764 0.006567972857615791 0.022142670370466192
0.008886724321669981 -0.015066834246680826 -0.022877840417951174
-0.006213830169768967 0.0001224041556737654 0.02605811087425285
-0.016267734291065664 0.0020224144420948 -0.007356373616287958
-0.0028275571875747843 0.008655671850968372 0.02763659226198014
-0.011991373624965355 -0.022590088329237406 0.0018988543358388304
-0.011631842363532872 0.004735041086466382 0.002131592294850569
-0.03550773218108308 0.021956632213182625 -0.039842005215386514
-0.015016328300173304 0.0205066852898937 0.03795134625967037
0.025140120445271447 0.025273112914337207 0.00221817516824518
0.019677811607442825 0.02767809820610779 0.049532553741776814
0.023805851937989224 0.037272590576791824 -0.04311302964582694
-0.016215582234135106 0.0003771665721770169 -0.038386700570181044
0.007601543251433852 -0.019954032357168847 -0.051172465405574324