# vtk DataFile Version 2.0
Really cool data
ASCII
DATASET UNSTRUCTURED_GRID
POINTS 584 double
-1.0 0.0 0.0
-0.9600374798207896 -0.027590413451835553 0.04
-0.9589620457797374 -0.028177574718636023 0.0
-0.9553815213922792 0.019675326217199102 0.04
0.6719637381218919 0.02110482676547816 0.0
0.6414775595248179 0.020020515529780993 0.04
0.6571281419012174 0.06 0.0
0.6240641012293764 0.022292119262118645 0.0
0.687851041884645 0.021313940245698455 0.04
0.7030120427199962 0.06 0.04
0.657128141901218 0.06 0.04
0.7030120427199952 0.06 0.0
0.6885310613992013 -0.0196061899732657 0.0
0.6720046167250797 -0.020579604775701428 0.04
0.6407079554435648 -0.019738458112036637 0.0
0.7171469290115033 0.021165332718839136 0.0
-0.7921016077200962 -0.06 0.04
-0.7604373514312079 -0.019298436119384588 0.0
-0.7479973317145423 -0.06 0.04
-0.7479973317145417 -0.06 0.0
0.7030120427199962 -0.06 0.0
0.7030120427199952 -0.06 0.04
0.6571281419012174 -0.06 0.04
0.7479973317145417 -0.06 0.04
0.7325903506195701 -0.020274227246539274 0.0
0.7176321617908783 -0.019839353713154383 0.04
0.7604373514312079 -0.019298436119384588 0.04
-0.8488906624897727 0.019856366527450334 0.04000000000000001
-0.8052789150181434 -0.019306901564895652 0.0
-0.805541091654972 0.020469431563422978 0.04000000000000001
-0.8203038938742353 -0.020636147377884773 0.04
0.897529295217204 0.022569895749215793 0.0
0.8488906624897727 0.019856366527450334 0.0
0.8569454102823642 0.029774901726562965 0.04
0.8777357995360431 0.06 0.0
0.9553815213922792 0.019675326217199102 0.0
0.95349853104827 0.02147987272312249 0.04
0.9103536180674616 -0.021283841161765512 0.0
-0.5450807564691462 -0.01715484187473429 0.04000000000000001
-0.5372746904547943 0.02439300391790418 0.04
-0.49049502097572617 0.000359712426279548 0.04000000000000001
-0.5409244119327052 -0.005150142234760652 0.0
-0.48901428549955095 -0.02776609156780287 0.019771763033692314
-0.4642419910175897 -0.06 0.04
-0.43891524330526177 8.673617379884035e-17 0.04000000000000001
0.7479973317145423 -0.06 0.0
0.9600486361512215 0.06 0.04
1.0 0.06 0.04
1.0 0.06 0.0
0.9192992165657531 0.06 0.0
0.7479973317145423 0.06 0.04
0.7309057796957548 0.02177174945441851 0.039999999999999994
0.7479973317145417 0.06 0.0
0.7613659684934695 0.020945326906433456 0.0
0.7736855084518748 0.020914979208800512 0.04
-0.8570647961856006 -0.015388027432140593 0.0
-0.8569454102823642 0.029774901726562965 0.0
-0.8649535140731797 -0.02016838668923704 0.039999999999999994
-0.1726925416005594 -1.214306433183765e-16 0.039999999999999994
-0.22806385632140147 1.0755285551056204e-16 0.039999999999999994
-0.2006519843784229 0.06 0.0
-0.22806385632140147 -1.1796119636642288e-16 0.0
0.438611990705585 -5.252150912499892e-05 0.04
0.41358849559293387 -0.06 0.04
0.4135884955929341 -0.06 0.0
0.4642419910175897 -0.06 0.0
0.4782715374234063 0.0302584611690398 0.019894876072988572
0.513903464641242 0.06 0.0
0.49049502097572617 0.000359712426279548 0.0
0.46424199101758934 0.06 0.0
0.46424199101758934 -0.06 0.04
-0.8164681441220105 0.022269284396602723 0.0
0.48912437490067595 -0.00041996788971368666 0.04
0.4642419910175897 0.06 0.04
-0.8353421249080566 0.06 0.04
0.8649535140731797 -0.02016838668923704 0.0
0.8973163514988121 0.02144006532192878 0.04
0.5625923446839085 0.06 0.04
0.6103276788742331 0.06 0.0
0.5943416245309461 0.018901239582525348 0.04
0.5790918012159274 0.021628695864523574 0.0
-0.593631917725493 -0.01946781888421301 0.04
-0.6103276788742336 -0.06 0.04
-0.6407079554435648 -0.019738458112036637 0.039999999999999994
-0.6264545933043166 -0.021459100211208025 0.0
-0.6103276788742331 -0.06 0.0
-0.6103276788742336 0.06 0.0
-0.6240641012293764 0.022292119262118645 0.04
-0.6414775595248179 0.020020515529780993 0.0
-0.5943416245309461 0.018901239582525348 0.0
-0.5790918012159274 0.021628695864523574 0.04000000000000001
-0.5625923446839077 0.06 0.04
-0.6103276788742331 0.06 0.04
-0.5625923446839085 0.06 0.0
-0.7325903506195701 -0.020274227246539274 0.039999999999999994
-0.7176321617908783 -0.019839353713154383 0.0
-0.7309057796957548 0.02177174945441851 0.0
-0.7736855084518748 0.020914979208800512 0.0
-0.7613659684934695 0.020945326906433456 0.04
-0.6571281419012174 0.06 0.04
-0.6719637381218919 0.02110482676547816 0.039999999999999994
-0.7030120427199952 0.06 0.04
-0.687851041884645 0.021313940245698455 0.0
-0.029521960903255984 -0.06 0.04
-0.05860957814939871 -6.938893903907228e-17 0.039999999999999994
-0.05860957814939863 5.898059818321144e-17 0.0
-0.08769719539554167 -0.06 0.0
-0.08769719539554144 -0.06 0.04
-0.2823507532564078 -5.204170427930421e-17 0.04
-0.25547572826437986 0.06 0.04
-0.25547572826438003 0.06 0.0
0.38751191920162714 6.938893903907228e-18 0.0
0.3352618020299945 -3.469446951953614e-18 0.0
0.36192316205531716 0.06 0.04
0.3619231620553172 0.06 0.0
-0.36192316205531716 0.06 0.0
-0.335244821032008 -1.1796296425746478e-06 0.0
-0.3352618020299945 -3.469446951953614e-18 0.039999999999999994
-0.38745316199969926 -7.894682722445895e-06 0.0
-0.3619231620553172 0.06 0.04
-0.3092257782484355 0.06 0.04
0.28235075325640757 5.551115123125783e-17 0.039999999999999994
0.30922577824843556 -0.06 0.0
0.335244821032008 -1.1796296425746478e-06 0.04
0.3092257782484355 -0.06 0.04
0.36192316205531716 -0.06 0.0
0.38745316199969926 -7.894682722445895e-06 0.04
0.3092257782484355 0.06 0.0
-0.38751191920162714 6.938893903907228e-18 0.04
-0.28235075325640757 5.551115123125783e-17 0.0
-0.30922577824843556 0.06 0.0
0.6103276788742336 -0.06 0.0
0.593631917725493 -0.01946781888421301 0.0
0.6264545933043166 -0.021459100211208025 0.04
0.4889627886584896 -0.027603176797077415 0.020155725176282127
0.583287522480325 -0.023728770665855194 0.039999999999999994
0.5450807564691462 -0.01715484187473429 0.0
0.5409244119327052 -0.005150142234760652 0.04
-0.48912437490067595 -0.00041996788971368666 0.0
0.3619231620553172 -0.06 0.04
-0.657128141901218 0.06 0.0
0.9600374798207896 -0.027590413451835553 0.0
1.0 0.0 0.04
0.9589620457797374 -0.028177574718636023 0.04
0.5625923446839077 -0.06 0.04
0.5625923446839085 -0.06 0.0
0.7766984080639845 -0.02052537972713625 0.0
-0.438611990705585 -5.252150912499892e-05 0.0
-0.583287522480325 -0.023728770665855194 0.0
-0.9600486361512215 0.06 0.0
-0.95349853104827 0.02147987272312249 0.0
-0.9192992165657539 0.06 0.0
-0.9192992165657531 0.06 0.04
-1.0 0.06 0.0
-0.14473309882269625 -0.06 0.04
-0.14473309882269605 -0.06 0.0
-0.11621514710911887 -1.214306433183765e-16 0.0
-0.17269254160055947 1.1796119636642288e-16 0.0
-0.14473309882269625 0.06 0.0
-0.11621514710911884 1.214306433183765e-16 0.039999999999999994
-0.8353421249080566 -0.06 0.0
-0.8353421249080575 -0.06 0.04
-0.8973163514988121 0.02144006532192878 0.0
-0.897529295217204 0.022569895749215793 0.04
0.11621514710911887 -1.214306433183765e-16 0.039999999999999994
0.05860957814939871 -6.938893903907228e-17 0.0
0.05860957814939863 5.898059818321144e-17 0.039999999999999994
0.08769719539554144 0.06 0.04
0.6103276788742336 0.06 0.04
0.5139034646412424 -0.06 0.0
0.9096368506350345 -0.020963842829632554 0.04
0.805541091654972 0.020469431563422978 0.0
0.8052789150181434 -0.019306901564895652 0.04
0.8203038938742353 -0.020636147377884773 0.0
0.08769719539554144 -0.06 0.0
0.08769719539554167 -0.06 0.04
0.9192992165657531 -0.06 0.04
0.8164681441220105 0.022269284396602723 0.039999999999999994
-0.9103536180674616 -0.021283841161765512 0.04000000000000001
-0.8777357995360431 -0.06 0.0
-0.9096368506350345 -0.020963842829632554 0.0
0.8570647961856006 -0.015388027432140593 0.04
0.7921016077200956 -0.06 0.04
0.8353421249080566 -0.06 0.04
0.7921016077200962 -0.06 0.0
0.4135884955929341 0.06 0.04
0.43891524330526177 8.673617379884035e-17 0.0
-0.7921016077200956 -0.06 0.0
-0.08769719539554144 0.06 0.0
0.14473309882269605 0.06 0.0
0.1726925416005594 -1.214306433183765e-16 0.0
0.11621514710911884 1.214306433183765e-16 0.0
-0.029521960903255984 0.06 0.0
0.0 0.0 0.0
0.17269254160055947 1.1796119636642288e-16 0.04
0.14473309882269625 0.06 0.04
0.0 0.0 0.04
0.2006519843784229 0.06 0.04
0.22806385632140147 -1.1796119636642288e-16 0.04
0.22806385632140147 1.0755285551056204e-16 0.0
-0.6720046167250797 -0.020579604775701428 0.0
-0.7030120427199962 -0.06 0.04
-0.7030120427199952 -0.06 0.0
0.25547572826438003 0.06 0.04
0.30922577824843556 0.06 0.04
0.25547572826437986 0.06 0.0
-0.02952196090325599 0.06 0.04
0.2006519843784232 -0.06 0.04
0.14473309882269605 -0.06 0.04
0.2006519843784229 -0.06 0.0
0.14473309882269625 -0.06 0.0
0.2823507532564078 -5.204170427930421e-17 0.0
-0.36192316205531716 -0.06 0.04
-0.41358849559293387 -0.06 0.0
0.5372746904547943 0.02439300391790418 0.0
0.5139034646412424 0.06 0.04
-0.5139034646412424 -0.06 0.04
0.41358849559293387 0.06 0.0
-0.7171469290115033 0.021165332718839136 0.04
-0.7479973317145417 0.06 0.04
-0.7030120427199962 0.06 0.0
0.08769719539554167 0.06 0.0
0.029521960903255984 -0.06 0.0
-0.02952196090325599 -0.06 0.0
0.02952196090325599 -0.06 0.04
0.02952196090325599 0.06 0.0
0.029521960903255984 0.06 0.04
-0.47805793986482265 0.03008719549728311 0.01940109733029794
-0.4642419910175897 0.06 0.0
0.6103276788742331 -0.06 0.04
1.0 -0.06 0.04
0.9600486361512205 -0.06 0.04
0.9600486361512215 -0.06 0.0
-0.3092257782484355 -0.06 0.0
0.877735799536044 -0.06 0.0
0.8777357995360431 -0.06 0.04
-0.41358849559293387 0.06 0.04
-0.4135884955929341 0.06 0.0
1.0 -0.06 0.0
1.0 0.0 0.0
-0.14473309882269605 0.06 0.04
-1.0 -0.06 0.0
-0.9600486361512215 -0.06 0.04
-1.0 -0.06 0.04
-0.7921016077200962 0.06 0.0
-0.9192992165657531 -0.06 0.0
-0.9600486361512205 -0.06 0.0
-0.7921016077200956 0.06 0.04
-0.7766984080639845 -0.02052537972713625 0.04
-0.5625923446839085 -0.06 0.04
-0.5625923446839077 -0.06 0.0
-0.877735799536044 -0.06 0.04
0.7921016077200962 0.06 0.04
-0.3619231620553172 -0.06 0.0
-0.7479973317145423 0.06 0.0
-0.8777357995360431 0.06 0.04
-0.4135884955929341 -0.06 0.04
-0.46424199101758934 -0.06 0.0
0.513903464641242 -0.06 0.04
-1.0 0.0 0.04
-0.877735799536044 0.06 0.0
-0.30922577824843556 -0.06 0.04
[...]
POINT_DATA 584
VECTORS displacement double
0.0035125837384646654 0.019511478295215358 -0.015945815899897076
-0.0024278954652183415 -0.003465464613759205 -0.008608327846778405
0.0037513018351679217 -0.001966657951353387 -0.00833753116687283
-0.00476476983834417 -0.0063893611884672 -0.0058330223888064
0.02520528950031532 -0.0014685847616543774 0.009055461463874828
0.021353034733915616 0.004484520901267174 0.0033012533207510872
-0.033539581983722803 -0.0008744883489439283 0.010142679334575334
0.01947156953026713 0.0005934060017738149 -0.0002911356431248921
0.027244770559471564 -0.00499015163635729 0.006866206296997956
-0.054929281856831255 0.02011202754310607 0.020600031301081838
-0.036261039530054336 -0.009634930538492516 0.011527602177449492
-0.04519780705330905 0.030823623921010068 0.020088296366684348
0.030964211075039563 0.009275568064880195 0.003800278877818119
0.024636153470862242 -0.0031692595266663006 0.00459499772571848
0.02255573817670821 0.005050871763817753 0.0009788529893729845
0.0247005437889402 0.03789908904960458 0.013793838076844474
-0.004304305168551137 0.006994184467480371 0.012506552204205552
0.004133444955334436 0.0018634951680644224 0.002710982859891874
-0.006308117567761121 -0.0072361418318078975 -0.0024075232831459775
-0.0062395148664045495 -0.005851818287447772 -0.00018106272691643523
-0.06778390559158388 0.012029056410277869 -0.013128300007557346
-0.06407668513727043 0.02329917505019676 0.0041043804880503045
-0.05502997788801551 0.004327555945662425 0.003440131385885716
-0.06456560365022891 -0.01305791114440622 -0.0053869736826137
0.02218639570340173 0.0038820421036036383 0.005524552341323483
0.031003559546531577 -0.019216486783590253 0.0017538818373233152
0.008983389268340174 -0.01886063587499138 0.004356499929459152
-0.004547785160127364 0.002150243852140564 0.010218940299255071
0.001184713748950776 -0.008415445884104832 0.011465774621290569
-0.0031309481392579625 -0.008071583881063505 0.007076763194573848
-0.0021922785441607614 -0.007203605185446507 0.011096827631579287
0.03752238438896769 -0.03240771594895366 0.007212446859848278
0.02390827859494158 -0.03818666851162252 -0.004465639122199737
0.010796502852312588 -0.011460385225261672 -0.014706379766315846
-0.04051255953755012 -0.05118583317987722 -0.02307251011518552
0.02105056373993859 0.0460010160857915 0.019808560909764843
0.00938915896987986 0.03623965459293944 0.011945911469631676
0.05950921620914642 -0.03922712403299573 0.021310360490114682
0.01270138142140127 0.0013948102346218938 0.002640483696283828
0.007906888937911633 0.0004049869857237739 0.0014355124547590827
0.0187663534627716 -0.003496210191823056 0.01103916580816297
0.01795428937562995 -0.001482239083274952 0.0036758637916714985
0.006787584146272624 -0.003802535143186733 0.012932570589431442
-0.007378381023635718 0.0017664458157461561 0.01377373946262757
0.022969972533681854 0.0007990039490111907 0.011921591860943959
-0.0710769955319371 -0.0038519091883374088 -0.006606297835486037
-0.015054698528547378 -0.03513450107508541 0.03678606628955355
0.03627629891960112 0.08163636510876694 0.05292959854229054
0.004431708747454199 0.11574568440940097 0.05522752475975148
-0.05792594494722401 0.038147154042029695 0.009188461450508325
-0.024167499752245324 0.00017004835873331243 0.02264573220590317
0.014948215184348357 0.055575652353248614 0.00979744653097242
-0.024849564534607665 0.0033476172878358045 0.012741523283429725
0.021645875490465996 -0.023836014618295046 0.015591098307702491
0.027112958384359793 -0.06516574380427413 0.0021259730188199575
0.005418987884645829 -0.0025982051611455107 0.012719618136459613
-0.002297907875303492 -0.00014949833232122465 0.009468015828317104
0.001809495478502386 0.0015946239376609774 0.011716733862843555
0.02264878423792693 -0.002801417413196553 -9.082791096190334e-05
0.023708839879090688 -0.0006502182033764525 -0.010609893219081965
-0.009582933478169837 -0.0047075038656362 -0.010551008398345618
0.02442960815657858 -0.0025811840907804663 -0.011680067527955815
0.02528534409124833 0.0013452272546723967 -0.007483564387745832
-0.03882692883689163 0.004022890883390412 -0.007895773365534578
-0.04031732029041907 0.00836881091272035 -0.005965218317711227
-0.03799215663417005 0.004121002609596474 -0.013309285826457677
-0.00167319413630556 -0.0019237306297717307 -0.014765352022195463
-0.030396483456001 0.0018960576387738084 -0.016919350163807446
0.02700155596642712 -0.001910584868784691 -0.013553803648695965
-0.031871720002387256 0.00029871290274384834 -0.0100186589140387
-0.03636364961432193 0.0009183638046818571 -0.014050910773954317
-0.0011303824416148494 -0.007708007710189429 0.00901163889005345
0.02787099527123023 -0.0014247125681648648 -0.014534546964680095
-0.03202820166278695 -0.003914104873917192 -0.008540882780232706
-0.01864850477394884 -0.0013286497294901875 0.008293944880994364
0.05731009910652376 -0.04744475760239311 0.011647447419283074
0.023539381367143997 -0.02481195992625617 -0.00929926759434649
-0.036109712433621724 -0.004471494219040603 -0.011045890306118876
-0.033554713832356454 -0.0060573087883398925 -0.0032786111551332494
0.014774836942902549 -0.004637422209177185 -0.006494057887335065
0.016123569640389603 -0.005745485936741554 -0.009962211487238005
0.011228253618435432 -0.0013393964413045047 -0.007448887244488204
-0.004230320025541865 -0.0017724702135859664 -0.007887959063503721
0.006458201687449624 0.004396093280141063 -0.015146653609526467
0.009776219159392908 2.9722682359150796e-05 -0.012827376117736725
-0.003787234663726902 -0.002713665108018575 -0.008220331772608112
-0.008675293746169403 -0.00710943970459312 -0.005775301434921067
0.004882230646692859 -0.009124572467266001 -0.012342612263180404
0.004839707994903211 0.0037495510183097 -0.012121492421586888
0.0096619192720201 -0.007488432577765656 -0.00755510537910122
0.008947566712558126 -0.006987684159366716 -0.006936919678368148
-0.010578966883631883 0.0062945993692107415 -0.005118208133177236
-0.00929834041988313 -0.0039131917764928656 -0.011605008282326806
-0.010052173345136002 0.0024572486806166156 0.0009918186766872308
0.0030312318346243953 -0.004932067059213087 -0.005819012870883574
0.0039422146131663695 0.0011581860048953637 -0.00885300555437174
0.0026346305799226674 -0.0012220987744020328 -0.00340206973122019
-0.00033959646458691083 0.0008919934105109837 0.002251107834557355
0.0015717905868600816 0.007716294186007087 0.0003326625978372369
-0.008830904225884638 0.00958943970913309 -0.010221699062885259
0.002880140168902309 0.011799769367843549 -0.012484756787977766
-0.014375260082178475 0.004834137484477172 -0.004002562470859173
0.0035266737715360405 0.011285423524278911 -0.010281476073296873
-0.030643151605854 0.0008831289461181704 0.006053965488254497
0.02144753837760921 0.0009522755013959885 0.013238834097911578
0.022512611394894383 0.0027270060193129737 0.012052224173037328
-0.0259062633239144 3.0525648499265955e-05 0.010561312393969534
-0.025306070415856634 -0.00022031105820079553 0.01379819426863167
0.024463914184437816 0.0009414666172812838 -0.012643760727654019
-0.00722282853933071 -0.0020283690084397493 -0.012559833089223394
-0.009271780868645113 -0.0016821604254243243 -0.01413638860347157
0.021968919276164397 0.011261126809982197 0.005287360859534759
0.021181487420618716 0.0014110765004567225 0.013055498349851024
-0.03226201651394919 0.0007697341679100327 0.015372770616540386
-0.03290189686998226 0.003899768419405018 0.013964639678030901
-0.00885747633067387 0.004480241889903171 0.004304020192469563
0.02137007416512984 0.006246908270892195 -0.006136325437679483
0.023804947523162194 0.0021554856222430157 -0.0057494293962286865
0.020807309136694905 0.005386824050909479 0.0044586004559792536
-0.005811540084967432 5.396619712100195e-05 0.004474435724712595
-0.005808570080698851 0.0017983726416440204 -0.0056130107529177645
0.01999535954955124 0.001548425887591101 0.012700395433437834
-0.03990638291193028 0.0007561386580466874 0.012164200846831839
0.02051961588122613 -0.0009350015890453274 0.013239082023967225
-0.040303822071189176 -0.0007806580088422855 0.012213920820348112
-0.03887347805206323 0.0061015861922662454 0.005523189545282552
0.02262702093968962 0.006711420656880142 0.004171994488685575
-0.029793298406992942 -0.00018686601796872985 0.015161179284544307
0.022713759769932035 0.0018425749392943958 0.004505604506206291
0.022829260955891825 0.0023909351410548044 -0.012581930100522878
-0.009626874538055673 0.004493973965255297 -0.007223623338700831
-0.04763314388462792 -0.006348851856860715 -0.004834041805702459
0.021977058635170216 -0.0070426632173222715 -0.006070828168713382
0.021371465761139796 0.0027776221183259337 0.0002272886566278602
-0.000310761025900939 0.00039461785094279604 -0.01437456452747549
0.02107449196936963 -0.008629428508753265 -0.006104572692731797
0.019191647407869505 -0.0006033477838308877 -0.011498085235588042
0.030667895668132446 0.0038501739820942372 -0.01417872494769583
0.01950576222592234 -0.005276513889517268 0.011698791109098501
-0.038064134987312565 0.0012090551920683802 0.00420394471402627
-0.00982060108491609 0.012462169560715712 -0.007798431549087316
0.02060695830749194 0.015866274531059085 0.015493764130873547
-0.0026114307006472872 0.04160343375043037 -0.0032697230343518104
0.023547681148083827 0.011417085953574825 0.009709514095304983
-0.03270648721275412 -0.0007450271563646304 -0.005281721059559614
-0.04499988772574282 -0.001544106052624267 -0.010977792414782375
0.024258582525233885 0.009580131029184046 -0.00781590348028941
0.021457450901408603 0.0014914889861057797 0.011634865869850054
0.013412574260371634 -0.005474278985163707 -0.004128681228814126
-0.008274356103375952 -0.0010058701470511365 -0.006058458870842998
0.0005544466744518297 -0.004971080142926683 -0.006128154246929578
-0.011668635159022342 -0.005838725214025202 0.0011950332343204078
-0.017894385485015995 -0.004746094779092657 0.0021419868038534675
-0.006952791561804052 0.018955857913779378 -0.011543319205956434
-0.02359780562766757 -0.0006180207084167269 0.009419041136270906
-0.02161281977096592 -0.003687567891936219 0.008698106567360418
0.023984567919560273 -0.004108459543982411 0.009983444632138277
0.02437193323786039 -0.005527875189597706 -0.000776547351208774
-0.01135548655033365 -0.005902196029756816 0.001534245249994378
0.022725275105997915 -0.0024548769370041244 0.010705809533658022
-0.0026671804528332283 -0.014993086266077833 0.016304125776289913
-0.0045990607240737735 -0.014625267067011154 0.01627833861377282
0.0013033798987900488 -0.0029917794468508007 0.004971968068601827
-0.004121785848219712 -0.0030006757033014583 0.006946950613887408
0.018589711908464437 -0.0018243595395629607 -0.014402525377716484
0.017984943849328732 0.006447773505585784 -0.008046090460122545
0.018550975108104915 0.002715577484070329 -0.007698216243393096
-0.021469124135116664 0.0027426009414311743 -0.008886302182005043
-0.041673469089302764 -0.009816329185368329 1.7853519567110073e-05
-0.03597304040170202 0.0029713878410289134 -0.012433545125406023
0.05697948146873124 -0.015192379407629896 0.014745838960167068
0.016366355021877593 -0.011864122332208446 -0.003499400333151084
0.06334447971140499 0.0072333518473934825 0.012171558000215505
0.06327953688872026 -0.008509279007945469 -0.0013577483468913691
-0.036554932521911526 0.0034734475488422283 -0.014006362592894355
-0.036301611431434164 0.0022200239589251114 -0.014642711806089372
-0.06615356508312624 -0.0657687368647946 0.0316561667892688
0.012029169447650085 0.009800996436873278 -0.006216395582647148
-0.00017582405347386863 5.396355459540767e-06 0.00470729570592736
0.0026332682832698505 0.00023438040478536312 0.01280880198306524
0.004696950623691407 -0.0014231991556617454 0.0045143009508884484
0.054450467461945457 -0.028313579150787794 0.004871262830912962
-0.05524042997010271 0.10535025772628408 -0.010275825826469673
-0.05019877578012163 -0.026710067440183533 0.015286563581063641
-0.048285352253188064 0.0644825142622627 0.0037350117483221862
-0.030088652963625086 0.005570806347511836 0.003649516612660895
0.022843027801560008 0.004044552886030361 -0.007178822167078628
-0.00224155549835702 5.082986456204932e-05 0.013940145317052944
-0.013961000371890003 -0.0017619298098804246 0.011759540743569512
-0.02624296456414752 -0.0012893038842757098 -0.015065171549221257
0.020075349852175073 -0.0032824017697641104 -0.009524348182922755
0.019019631576596027 -0.0013817300393976699 -0.013525924683372515
-0.01659245073530723 0.005082139620754207 0.013032352319412471
0.019844182905148503 0.005798422514843793 0.0043830165263944385
0.017713459760818555 -0.0008702984161040871 -0.009078997763835408
-0.026938752191258214 0.00023420673442130306 -0.01431711489223817
0.01972937707687679 0.0019578813470068714 0.00497919722027247
-0.02939756874043785 -0.0025756188701271557 -0.008313393398067123
0.018758134443981632 -0.004060057731762336 0.003131768435949587
0.020588150398798147 -0.007799176219294599 0.003245365671392731
0.008585918546400001 0.007251772300771116 -0.013869099744622719
-0.002272091691649061 0.00939994643977786 -0.013927254955780751
-0.0015363356516087494 0.00805769793198264 -0.011313013540313733
-0.03166042748255678 -0.0023759461143389817 0.004733550938111247
-0.030065930753288585 -0.001171342918502795 0.0159272440856579
-0.03034380456121137 -0.004380439406805206 0.0060836220469005445
-0.015409669469472056 0.0015726463902506504 0.014717493727468152
-0.038693988116882246 -0.001142747231438672 0.0016324814104271338
-0.036748315527332966 -0.001712274106992769 -0.01095972961073096
-0.03665264741311117 -0.004916125286025016 0.001049254328665519
-0.035280354697159795 -0.003666299743107411 -0.011641415946756072
0.02114049378447831 0.0009360565102470168 0.012499442442954476
-0.012218042150688377 0.002067303768573889 -0.0059930906015818255
-0.012571244492670514 0.0022465134770881605 0.0044060090854041705
0.010227757961618546 0.0022369872457088276 -0.015894295707168982
-0.03711624581905559 0.0023080147213968565 -0.015435657418264219
-0.010000462427843474 -0.0028064713552653302 0.011355226842072299
-0.032220294664218364 0.010006982156256686 0.004580902990480455
0.004205802438295775 -0.006703417273220654 -0.007939831448721757
-0.009655513422037458 -0.0005176694065092133 -0.002441706080840912
-0.014171740652946728 0.008120111686484511 -0.003284757267204602
-0.024023490489865493 0.0051365315949891115 -0.010137793172538372
-0.03471082312194767 0.004008442850089528 -0.006585967890242823
-0.03051381593959721 0.004137270126419009 0.004472616058775635
-0.03343147274866444 0.0007519677804070876 -0.006847997777327118
-0.02119094140659534 0.006899480539205447 0.0032622309307998743
-0.01936613549978257 0.003292258550535976 0.004666117603510644
0.006442332999143745 -0.005708413631373743 0.012050434983701732
-0.008813772852025873 -0.00475918220331557 0.01282677507809502
-0.03859175832478649 -0.003533797592050912 0.004367513528768642
-0.038564648631829415 -0.06805600962451903 -0.04088344063513111
-0.054257139892206666 0.03521007610313732 0.028806664350696565
-0.05599170375644558 0.022527641072728328 0.017650204528295143
-0.016252287689867546 0.005431067926597718 -0.01411143870083198
-0.04192803381894156 -0.042528291612884093 0.029822345770715273
-0.04803952436834889 -0.020569479380732107 0.025102349393577656
-0.005439950045591617 0.0033471521724202733 0.011867337374784223
-0.008411699535614077 0.0053849668479447445 0.012145397581277646
-0.03137628773539779 -0.038070007208078606 -0.004128734976434871
-0.0033158733387954435 0.06131025331717511 0.009243218296826347
-0.010852514214131324 -0.0026846749626788825 0.0013248903835778164
-2.634402417102643e-05 0.01900907242764103 -0.020816803495302225
-0.002712925342186064 0.000917343871970455 -0.008644208136056647
-0.00345931125084491 0.013991567282487002 -0.01881323046869398
-0.017877824906942428 -0.006331317935137396 0.006180279280018441
0.002715423546103456 -0.00062629609200563 0.0023991144301562747
0.001335379391040594 0.00018381066927811244 -0.010512020887715006
-0.017717309615715073 -0.007565440382968052 0.0032150972527743814
0.004810186752940792 0.00768209595250146 0.004770780599699842
-0.005980913730899581 -0.007199829711242564 0.0013447688440193447
-0.004478526608671674 -0.009235255845122001 0.0034735799877262776
-0.0010447847547904567 0.004157907101519121 0.014907405190243386
-0.06536131814822282 0.01944860229735915 -0.004698525668759384
-0.014959370967963268 0.005939439074343515 -0.006274956316084021
-0.012415908905037885 9.34822286241114e-05 -0.0004490007842855328
-0.020750709825790505 0.0033630441123775104 0.008416616667888345
-0.008850090158541298 -0.0005511438548167617 0.006455297539270429
-0.009122912340579941 0.0008886391736675355 0.013711796157594183
-0.03342868859591725 0.005252679848763596 -0.012974927460325357
-0.002039385524375624 0.016514754959421733 -0.015751834789980792
-0.013823720824805 0.00041928662917613653 0.0076203166802393555
-0.013577287651538119 0.0025153045288632972 -0.014190436614139294
-0.01797211280313213 -0.001048574167119178 -0.012495027754886335
-0.01297959314799904 -0.001512453963027067 0.012677143706021122
-0.03712396987983353 -0.0027524126329129804 0.010642550459834497
-0.01687063518743482 -0.000504164910555325 -0.01526617535782596
-0.013984325195754111 -0.00042138382005901603 -0.006154712050658472
-0.000884207379964772 0.00033300450279003663 0.003345907341085935
-0.008133979836790525 -0.002612397205265262 0.007280245668850583
0.009760905649679505 0.0032801904622945374 -0.014603477672925544
-0.030094583796085487 0.020114984014076298 0.0493246315553252
-0.010476035231587178 0.014500890788136224 -0.008296273504341624
-0.008549973399097221 -0.00048278778627273766 0.004156817801144933
-0.007097184162767923 -0.005525078770375796 0.011837950141527038
-0.0010919878539839938 0.0013450901644427775 -0.015361389021384795
-0.03414303681722545 -0.03829304249118897 -0.027962185008032575
-0.050522505685505203 0.06068589283993607 -0.003647655178120467
-0.037078753435037345 -0.0010278767000661002 0.012806150519390411
-0.04477630785227022 -0.03825911153716852 0.016483528905308586
-0.008836752250349586 -0.005794401862838379 0.013064446797837678
-0.008190970743250741 -0.0021733763168700283 -0.009570675500237002
-0.014227414544671867 -0.003545974345100981 0.007801588565050105
-0.05591238204608258 -0.04864766614297592 -0.03346972855476926
-0.05696802944736312 -0.032080688820641114 -0.031258363787502665
-0.06461604877365895 -0.003913203579254838 -0.012416167546122894
-0.055479540776750144 -0.0600664634434822 0.028051716704073706
-0.030085971106337542 -0.0037718625192746957 -0.012138848114787217
-0.0005693252071888703 -0.003595147711742578 -0.017669260433392387
-0.0629524871108559 0.010880777983244177 -0.00825091276031298
-0.020480087456404363 -0.00267710547905381 -0.002247479122058117
-0.020298075440576064 -0.005155827065796442 -0.00366953907597359
-0.02661254328438856 -0.0060385788582936065 -0.008478068268074197
-0.009165784055333708 -0.00017296021093630862 0.00491417025790817
-0.00941146724311165 -0.0017735438415665149 -0.005772837178252566
-0.009905568046616502 -0.0015429075236574959 -0.007462112238900762
-0.0033689137477731263 -0.0049279383888889035 0.012760406489901047
0.018461961234267205 -0.002270098462129835 -0.013679510944490509
-0.003149479883004557 -0.006607636718624788 0.00775781749825973
-0.002846860720227514 0.006152149586555578 0.011583613405677616
-0.01503570900391825 -0.0017800283413708245 -0.011728248756716434
-0.018946077512429143 0.0008294201227374608 -0.0009841635322067567
0.023740833011844893 0.0017608317629438162 -0.009125811825370258
0.008433152280197764 0.0013456288350622095 -0.006306950780948529
0.012319250678256316 -0.007039956778102056 -0.008513575938203524
0.008276400829251343 -0.0018376050959563613 -0.013044925247893456
-0.0061261786896722875 0.002763421854731349 -0.011989688541770101
-0.00571814365033769 -0.00944752814439934 -0.0018469268851656509
-0.010463189652842443 0.01297926837694144 -0.012588016792034109
-0.009905196733238347 0.009156969539032705 0.015370823729193394