# vtk DataFile Version 2.0
Really cool data
ASCII
DATASET UNSTRUCTURED_GRID
POINTS 584 double
-1.0 0.0 0.0
-0.9600374798207896 -0.027590413451835553 0.04
-0.9589620457797374 -0.028177574718636023 0.0
-0.9553815213922792 0.019675326217199102 0.04
0.6719637381218919 0.02110482676547816 0.0
0.6414775595248179 0.020020515529780993 0.04
0.6571281419012174 0.06 0.0
0.6240641012293764 0.022292119262118645 0.0
0.687851041884645 0.021313940245698455 0.04
0.7030120427199962 0.06 0.04
0.657128141901218 0.06 0.04
0.7030120427199952 0.06 0.0
0.6885310613992013 -0.0196061899732657 0.0
0.6720046167250797 -0.020579604775701428 0.04
0.6407079554435648 -0.019738458112036637 0.0
0.7171469290115033 0.021165332718839136 0.0
-0.7921016077200962 -0.06 0.04
-0.7604373514312079 -0.019298436119384588 0.0
-0.7479973317145423 -0.06 0.04
-0.7479973317145417 -0.06 0.0
0.7030120427199962 -0.06 0.0
0.7030120427199952 -0.06 0.04
0.6571281419012174 -0.06 0.04
0.7479973317145417 -0.06 0.04
0.7325903506195701 -0.020274227246539274 0.0
0.7176321617908783 -0.019839353713154383 0.04
0.7604373514312079 -0.019298436119384588 0.04
-0.8488906624897727 0.019856366527450334 0.04000000000000001
-0.8052789150181434 -0.019306901564895652 0.0
-0.805541091654972 0.020469431563422978 0.04000000000000001
-0.8203038938742353 -0.020636147377884773 0.04
0.897529295217204 0.022569895749215793 0.0
0.8488906624897727 0.019856366527450334 0.0
0.8569454102823642 0.029774901726562965 0.04
0.8777357995360431 0.06 0.0
0.9553815213922792 0.019675326217199102 0.0
0.95349853104827 0.02147987272312249 0.04
0.9103536180674616 -0.021283841161765512 0.0
-0.5450807564691462 -0.01715484187473429 0.04000000000000001
-0.5372746904547943 0.02439300391790418 0.04
-0.49049502097572617 0.000359712426279548 0.04000000000000001
-0.5409244119327052 -0.005150142234760652 0.0
-0.48901428549955095 -0.02776609156780287 0.019771763033692314
-0.4642419910175897 -0.06 0.04
-0.43891524330526177 8.673617379884035e-17 0.04000000000000001
0.7479973317145423 -0.06 0.0
0.9600486361512215 0.06 0.04
1.0 0.06 0.04
1.0 0.06 0.0
0.9192992165657531 0.06 0.0
0.7479973317145423 0.06 0.04
0.7309057796957548 0.02177174945441851 0.039999999999999994
0.7479973317145417 0.06 0.0
0.7613659684934695 0.020945326906433456 0.0
0.7736855084518748 0.020914979208800512 0.04
-0.8570647961856006 -0.015388027432140593 0.0
-0.8569454102823642 0.029774901726562965 0.0
-0.8649535140731797 -0.02016838668923704 0.039999999999999994
-0.1726925416005594 -1.214306433183765e-16 0.039999999999999994
-0.22806385632140147 1.0755285551056204e-16 0.039999999999999994
-0.2006519843784229 0.06 0.0
-0.22806385632140147 -1.1796119636642288e-16 0.0
0.438611990705585 -5.252150912499892e-05 0.04
0.41358849559293387 -0.06 0.04
0.4135884955929341 -0.06 0.0
0.4642419910175897 -0.06 0.0
0.4782715374234063 0.0302584611690398 0.019894876072988572
0.513903464641242 0.06 0.0
0.49049502097572617 0.000359712426279548 0.0
0.46424199101758934 0.06 0.0
0.46424199101758934 -0.06 0.04
-0.8164681441220105 0.022269284396602723 0.0
0.48912437490067595 -0.00041996788971368666 0.04
0.4642419910175897 0.06 0.04
-0.8353421249080566 0.06 0.04
0.8649535140731797 -0.02016838668923704 0.0
0.8973163514988121 0.02144006532192878 0.04
0.5625923446839085 0.06 0.04
0.6103276788742331 0.06 0.0
0.5943416245309461 0.018901239582525348 0.04
0.5790918012159274 0.021628695864523574 0.0
-0.593631917725493 -0.01946781888421301 0.04
-0.6103276788742336 -0.06 0.04
-0.6407079554435648 -0.019738458112036637 0.039999999999999994
-0.6264545933043166 -0.021459100211208025 0.0
-0.6103276788742331 -0.06 0.0
-0.6103276788742336 0.06 0.0
-0.6240641012293764 0.022292119262118645 0.04
-0.6414775595248179 0.020020515529780993 0.0
-0.5943416245309461 0.018901239582525348 0.0
-0.5790918012159274 0.021628695864523574 0.04000000000000001
-0.5625923446839077 0.06 0.04
-0.6103276788742331 0.06 0.04
-0.5625923446839085 0.06 0.0
-0.7325903506195701 -0.020274227246539274 0.039999999999999994
-0.7176321617908783 -0.019839353713154383 0.0
-0.7309057796957548 0.02177174945441851 0.0
-0.7736855084518748 0.020914979208800512 0.0
-0.7613659684934695 0.020945326906433456 0.04
-0.6571281419012174 0.06 0.04
-0.6719637381218919 0.02110482676547816 0.039999999999999994
-0.7030120427199952 0.06 0.04
-0.687851041884645 0.021313940245698455 0.0
-0.029521960903255984 -0.06 0.04
-0.05860957814939871 -6.938893903907228e-17 0.039999999999999994
-0.05860957814939863 5.898059818321144e-17 0.0
-0.08769719539554167 -0.06 0.0
-0.08769719539554144 -0.06 0.04
-0.2823507532564078 -5.204170427930421e-17 0.04
-0.25547572826437986 0.06 0.04
-0.25547572826438003 0.06 0.0
0.38751191920162714 6.938893903907228e-18 0.0
0.3352618020299945 -3.469446951953614e-18 0.0
0.36192316205531716 0.06 0.04
0.3619231620553172 0.06 0.0
-0.36192316205531716 0.06 0.0
-0.335244821032008 -1.1796296425746478e-06 0.0
-0.3352618020299945 -3.469446951953614e-18 0.039999999999999994
-0.38745316199969926 -7.894682722445895e-06 0.0
-0.3619231620553172 0.06 0.04
-0.3092257782484355 0.06 0.04
0.28235075325640757 5.551115123125783e-17 0.039999999999999994
0.30922577824843556 -0.06 0.0
0.335244821032008 -1.1796296425746478e-06 0.04
0.3092257782484355 -0.06 0.04
0.36192316205531716 -0.06 0.0
0.38745316199969926 -7.894682722445895e-06 0.04
0.3092257782484355 0.06 0.0
-0.38751191920162714 6.938893903907228e-18 0.04
-0.28235075325640757 5.551115123125783e-17 0.0
-0.30922577824843556 0.06 0.0
0.6103276788742336 -0.06 0.0
0.593631917725493 -0.01946781888421301 0.0
0.6264545933043166 -0.021459100211208025 0.04
0.4889627886584896 -0.027603176797077415 0.020155725176282127
0.583287522480325 -0.023728770665855194 0.039999999999999994
0.5450807564691462 -0.01715484187473429 0.0
0.5409244119327052 -0.005150142234760652 0.04
-0.48912437490067595 -0.00041996788971368666 0.0
0.3619231620553172 -0.06 0.04
-0.657128141901218 0.06 0.0
0.9600374798207896 -0.027590413451835553 0.0
1.0 0.0 0.04
0.9589620457797374 -0.028177574718636023 0.04
0.5625923446839077 -0.06 0.04
0.5625923446839085 -0.06 0.0
0.7766984080639845 -0.02052537972713625 0.0
-0.438611990705585 -5.252150912499892e-05 0.0
-0.583287522480325 -0.023728770665855194 0.0
-0.9600486361512215 0.06 0.0
-0.95349853104827 0.02147987272312249 0.0
-0.9192992165657539 0.06 0.0
-0.9192992165657531 0.06 0.04
-1.0 0.06 0.0
-0.14473309882269625 -0.06 0.04
-0.14473309882269605 -0.06 0.0
-0.11621514710911887 -1.214306433183765e-16 0.0
-0.17269254160055947 1.1796119636642288e-16 0.0
-0.14473309882269625 0.06 0.0
-0.11621514710911884 1.214306433183765e-16 0.039999999999999994
-0.8353421249080566 -0.06 0.0
-0.8353421249080575 -0.06 0.04
-0.8973163514988121 0.02144006532192878 0.0
-0.897529295217204 0.022569895749215793 0.04
0.11621514710911887 -1.214306433183765e-16 0.039999999999999994
0.05860957814939871 -6.938893903907228e-17 0.0
0.05860957814939863 5.898059818321144e-17 0.039999999999999994
0.08769719539554144 0.06 0.04
0.6103276788742336 0.06 0.04
0.5139034646412424 -0.06 0.0
0.9096368506350345 -0.020963842829632554 0.04
0.805541091654972 0.020469431563422978 0.0
0.8052789150181434 -0.019306901564895652 0.04
0.8203038938742353 -0.020636147377884773 0.0
0.08769719539554144 -0.06 0.0
0.08769719539554167 -0.06 0.04
0.9192992165657531 -0.06 0.04
0.8164681441220105 0.022269284396602723 0.039999999999999994
-0.9103536180674616 -0.021283841161765512 0.04000000000000001
-0.8777357995360431 -0.06 0.0
-0.9096368506350345 -0.020963842829632554 0.0
0.8570647961856006 -0.015388027432140593 0.04
0.7921016077200956 -0.06 0.04
0.8353421249080566 -0.06 0.04
0.7921016077200962 -0.06 0.0
0.4135884955929341 0.06 0.04
0.43891524330526177 8.673617379884035e-17 0.0
-0.7921016077200956 -0.06 0.0
-0.08769719539554144 0.06 0.0
0.14473309882269605 0.06 0.0
0.1726925416005594 -1.214306433183765e-16 0.0
0.11621514710911884 1.214306433183765e-16 0.0
-0.029521960903255984 0.06 0.0
0.0 0.0 0.0
0.17269254160055947 1.1796119636642288e-16 0.04
0.14473309882269625 0.06 0.04
0.0 0.0 0.04
0.2006519843784229 0.06 0.04
0.22806385632140147 -1.1796119636642288e-16 0.04
0.22806385632140147 1.0755285551056204e-16 0.0
-0.6720046167250797 -0.020579604775701428 0.0
-0.7030120427199962 -0.06 0.04
-0.7030120427199952 -0.06 0.0
0.25547572826438003 0.06 0.04
0.30922577824843556 0.06 0.04
0.25547572826437986 0.06 0.0
-0.02952196090325599 0.06 0.04
0.2006519843784232 -0.06 0.04
0.14473309882269605 -0.06 0.04
0.2006519843784229 -0.06 0.0
0.14473309882269625 -0.06 0.0
0.2823507532564078 -5.204170427930421e-17 0.0
-0.36192316205531716 -0.06 0.04
-0.41358849559293387 -0.06 0.0
0.5372746904547943 0.02439300391790418 0.0
0.5139034646412424 0.06 0.04
-0.5139034646412424 -0.06 0.04
0.41358849559293387 0.06 0.0
-0.7171469290115033 0.021165332718839136 0.04
-0.7479973317145417 0.06 0.04
-0.7030120427199962 0.06 0.0
0.08769719539554167 0.06 0.0
0.029521960903255984 -0.06 0.0
-0.02952196090325599 -0.06 0.0
0.02952196090325599 -0.06 0.04
0.02952196090325599 0.06 0.0
0.029521960903255984 0.06 0.04
-0.47805793986482265 0.03008719549728311 0.01940109733029794
-0.4642419910175897 0.06 0.0
0.6103276788742331 -0.06 0.04
1.0 -0.06 0.04
0.9600486361512205 -0.06 0.04
0.9600486361512215 -0.06 0.0
-0.3092257782484355 -0.06 0.0
0.877735799536044 -0.06 0.0
0.8777357995360431 -0.06 0.04
-0.41358849559293387 0.06 0.04
-0.4135884955929341 0.06 0.0
1.0 -0.06 0.0
1.0 0.0 0.0
-0.14473309882269605 0.06 0.04
-1.0 -0.06 0.0
-0.9600486361512215 -0.06 0.04
-1.0 -0.06 0.04
-0.7921016077200962 0.06 0.0
-0.9192992165657531 -0.06 0.0
-0.9600486361512205 -0.06 0.0
-0.7921016077200956 0.06 0.04
-0.7766984080639845 -0.02052537972713625 0.04
-0.5625923446839085 -0.06 0.04
-0.5625923446839077 -0.06 0.0
-0.877735799536044 -0.06 0.04
0.7921016077200962 0.06 0.04
-0.3619231620553172 -0.06 0.0
-0.7479973317145423 0.06 0.0
-0.8777357995360431 0.06 0.04
-0.4135884955929341 -0.06 0.04
-0.46424199101758934 -0.06 0.0
0.513903464641242 -0.06 0.04
-1.0 0.0 0.04
-0.877735799536044 0.06 0.0
-0.30922577824843556 -0.06 0.04
[...]
POINT_DATA 584
VECTORS displacement double
-0.04869726169844402 0.019447620154417436 0.022721046391524093
-0.011898194013819894 0.0053243976502527525 -0.0011206876037666027
-0.01709555800379289 0.0017444134512840895 0.013861342048926504
-0.04268950428881428 0.014050601659053896 0.004674511695774769
-0.041580316497989926 -0.01844652952199605 0.011960729823543296
-0.03819778427791011 -0.008096494635894954 0.0015213687805797212
-0.07310812584152736 -0.002450409950443409 0.010570298898158387
-0.038717235081665406 0.008314349639439616 0.003139648077798928
-0.038056576636378625 -0.00959328247891409 0.0024715310518273357
-0.0746374133984331 -0.004637824926137927 -0.002087870074386799
-0.07269323919056708 0.009127048983070695 0.0006796912027569482
-0.07980550787348842 -0.01384670828282541 0.004856525079278949
-0.013910964226413282 -0.031207994184833672 0.018104243456291594
-0.007098737273084404 -0.01213756201338199 0.010368413799157367
-0.007034816935149014 -0.018968365637463895 0.014767880713519704
-0.03912476573802206 -0.020142741294298733 0.010407568923402402
-0.01750452086722362 0.036438082294140424 -0.012128822226323542
0.008443678351789646 0.04171776209652062 0.014102446200788718
-0.005495928128670031 0.023982088144864126 0.0033008735288427046
-0.00829216141644726 0.05496727176881547 -0.007743940969894149
-0.010408479718501252 -0.03464886365837496 0.03163292249369128
-0.006083650344899353 -0.01968514864591819 0.02371373708037745
-0.0007281213732553034 -0.038171180283582386 0.02137674538354226
-0.015262077046334853 -0.019460157522564074 -0.018647365996407313
-0.0069178011766386745 0.00038464070677848844 0.007145684805966592
-0.002933737266575297 0.004883036912566559 0.0025526094769950524
0.002774882518710413 0.030148072244854537 -0.011367740167813643
-0.04164629923573953 0.005578699786118618 -0.015913065458324507
-0.009023706664212082 0.0387908857506063 0.0015092747368168245
-0.032009999303221154 0.005800893333220919 0.012474452931293734
-0.006548551567764032 0.01872616351357475 -0.007010213494534483
0.04226721235521609 -0.011750140400505258 0.0038448715629581668
0.026069709460645782 -0.009105556934501265 0.0032670230470714873
0.02932445039627095 0.010729124875094278 0.0009727414785489597
-0.025778304778246924 -0.03911847882353199 -0.013631224947809537
0.030679291694926128 -0.0239949063078629 -0.012252132067143125
0.04641327452063962 -0.0030136825889407392 -0.0027390562880014566
0.0030823501586988156 -0.007947247946641377 0.017549110995648622
0.01633238110550652 -0.004100031763749555 -0.012606649219804674
0.012606829341071256 -0.0026330150493951766 -0.00855063469188836
0.008278749250409435 -0.007457570438413616 0.031107156824783613
0.003718286712149365 -0.0017814860538153468 -0.011931365090209107
0.02209538190546164 0.003420660747775789 0.022817349852735508
0.03966221529512571 0.01742510905307037 0.026557279666002406
0.01047235716401555 0.007862007879282195 0.03820042282039572
-0.01622221471806816 0.006770064976757982 -0.01689574730130436
0.021087971679252217 -0.07502717832374343 -0.007996326515483678
0.07051632666421266 0.08613476393208637 -0.03157791807301379
0.008287257197904385 0.07406875265203168 -0.05551350236330351
-0.03377825030436314 0.00890469702406964 -0.018134722983543586
-0.08882681229568097 0.00013488058418380984 0.006022486955208677
-0.024174876185331897 -0.019517486048844446 0.0010085944325113913
-0.09666435578831545 0.012431499813377853 0.010159820421838592
-0.02613391021956107 0.03190601619358093 0.0012444723491706517
-0.008088883878729932 0.021268034989195318 0.0028169649522136408
-0.0107079006388902 -0.015574957762741258 -0.012218566905304892
-0.05221193572372136 -0.00804939019810328 -0.016767870845268127
-0.0017040315910985951 -0.016026741600296344 -0.01631221966234126
-0.04216737383059552 -0.024485915042706294 0.03005862334034108
-0.04297949571280159 0.026177326226088232 0.008602384935257222
-0.021970438233932587 0.003030700299021762 0.033522369379788204
-0.03242846309209037 0.02079628097386578 0.02351562535858992
0.00658861721382367 -0.0038556618806632284 0.004248657610048723
-0.011188834504207478 -0.006990527730353785 0.008215642875132633
-0.01201560619520135 -0.007830840774425512 0.013928793025838139
-0.01438850164898821 -0.017690136790201875 0.010897033367269559
-0.007202776983307696 -0.008257996758432383 -0.020097236175853815
-0.023180680539811666 -0.009299870631302672 -0.03513580382015989
-0.003476290054822067 -0.016432347749295473 -0.016857342599560874
-0.010371772137593542 -0.009915549832426944 -0.022595028667891648
-0.013586931287590127 -0.0016907679443303161 0.012905503943863984
-0.04243691315512883 0.016240862146113408 -0.004360816978701766
-0.004439500161661248 0.0002792012534900143 -0.010943157332566641
-0.006878788489396785 -0.005045589792746149 -0.010543817888148366
-0.007117946702352761 -0.0015646382618920993 -0.010845922762899978
0.012010866423324731 -0.015323972850676106 0.01482059508090514
0.046585364083456 0.0009662661842804956 0.002676550941228094
-0.047871309522485715 0.020630487213417304 -0.01070105441945157
-0.051368687292051365 0.02942813909703138 0.000932562287080038
-0.037323939981510616 0.018819180854848256 -0.00740206227605898
-0.030426568575639034 0.02398492697979519 -0.01316238982835353
0.020357593331326657 -0.010087127111955228 -0.034546107957785996
0.015896186591452286 -0.011977257029510194 -0.023700036347838387
0.02686789077458027 -0.017698334529842392 -0.018139596862043392
0.018497106797658085 -0.021474879453410166 -0.02020240908551558
0.014117504083736345 -0.026049520044435694 -0.018136917313924823
0.03733090741730179 0.03737415843204055 -0.01442781980338336
0.03007715129203777 0.002863750966897148 -0.030629831376257834
0.02659824773860418 0.00319934962094269 -0.007050133265843314
0.017856209189824186 0.015984900565688725 -0.025010545271727008
0.02099350559798312 0.010430410447528895 -0.03287691148055325
0.02937468512666084 0.02210580975336028 -0.012538094666869616
0.04111393708947306 0.02048471326792215 -0.01581506821232705
0.02535734707535245 0.03511815054884145 -0.010705499154851588
0.012888085887101462 0.01741726941096145 0.028354806534995097
0.019065570815651866 0.022953885280543457 0.021807884861145828
0.007301762576110475 -0.014770052322511898 0.02435452366024385
-0.02117236742586466 -0.0005573006042014185 0.01718468301678826
-0.01097489278783361 -0.002133707612264642 0.030830181664083946
0.05343324581764542 0.019722120691093924 -0.003548552948247577
0.03416412691324661 -0.011045389605365188 0.0025110455226119584
0.05046149758827966 -0.020166200353664697 0.013380797051630871
0.029244742698184376 -0.016172045009322435 0.017404014546496552
-0.001088708869654571 -0.026357545183907857 0.009280401452163464
0.010903975742576167 0.03904958485915477 -0.005914220048365074
0.028170336178542716 0.04055973116880288 -0.0073454999154045665
0.033274198662836006 0.03425785368936146 -0.02795696524422285
0.029477940324416783 0.016577004239575744 -0.03002966221446802
-0.030500687035499213 0.00453117968549938 -0.029356801689870687
-0.040355321383082225 0.03537298290147762 0.006678766965990407
-0.027509043275996774 0.05150376840586042 -0.0003278283997707203
0.009674540867674497 0.01280439054211714 0.010238061563435026
0.019392842934937142 0.013108024748878051 0.010637922753206684
0.023106595046578266 0.0258966500927348 0.019152434101767146
0.019034401438475627 0.030383076625730095 0.017198101602065058
-0.010002279801685863 -0.002239526588474487 -0.03746008236715114
-0.011995709409586282 -0.01068790861500085 -0.032685580128991566
-0.01851542045695656 0.005922937351629509 -0.03242221486884968
-0.0017394232373725514 -0.005739756546458054 -0.0041759947715227196
-0.011329205546839556 7.48632695850034e-05 -0.021827873347726668
-0.024919278635010558 0.00793236733854082 -0.03992457655406539
0.018191079896105265 -0.00021979895365132013 -0.0002909278557292135
-0.01450585842264971 -0.0039032575423168774 0.0026241758904986703
0.01744122389394162 0.004999608235574272 0.00705932927446466
-0.012851371783825626 -0.00942919370966361 -0.0033943431102051924
-0.012854318426836053 0.020652157752994428 0.003594510147874199
0.01516920082282243 0.007299198584328945 0.011774826101127
0.026487843314672334 -0.00794626639819205 0.00494708222224909
-0.0025131399244158487 0.0040288276796900105 0.0037706838580302974
-0.019103458260010395 -0.002912295551402049 -0.016426947354528144
-0.014753182371011473 0.010018905673802437 -0.035692233760376696
-0.006432030318230483 0.006491567184561922 0.016071833624062892
-0.011414905294519382 0.01374127349130176 0.00024066059896586772
-0.008562762848880731 0.006790780889718786 -0.0007842159736429923
-0.007649779547619276 -0.010332175388923254 -0.0053130985100301835
-0.01637778681018495 0.012804431922136046 -0.011742880260437445
-0.00735019359230274 -0.015174877917927324 -0.012956113874413066
-0.014815905614410886 -0.0013406912219635803 -0.018056066499623196
0.005289780194344448 -0.008898948031224641 0.019404786985182106
-0.011457040642173141 0.011361138762269914 -0.0037015059755799063
0.05430704149815081 0.009221526079777708 -0.004075912175541157
0.018197674219899415 -0.04323338230425263 0.023775357904260202
0.015018957548135712 0.03987470783783095 -0.019129561322464367
0.01260669452638313 -0.010285742330382595 0.010006188199903069
-0.015877078050393217 -0.003128873056796381 -0.005121875855191042
-0.006915315806153895 -0.016586792906605353 0.003305474620192239
-0.007743276004332946 0.05706535135954953 -0.010045657860588765
0.007554310093915093 0.010471184698081904 0.025954788344605743
0.010741384532220639 -0.009659832260163677 -0.02677871313443551
-0.03891276073448181 -0.008505444413831224 0.0020805341939978406
-0.055913905648726954 0.006319573371472041 0.004336572861582168
-0.024245810210550032 -0.0035293409950917297 -0.024658982885728542
-0.0017274832928820547 0.023230712926003386 -0.027148732808347058
-0.06235568317368418 0.0017439875075373748 0.027907684575755477
-0.0019536653717554045 0.06573424169954356 -0.0013775765423094824
-0.017564683932084844 0.06561262683142931 -0.015285564682724915
-0.01153485955748406 -0.021493263476304803 -0.010680382941146533
-0.04639098582292096 -0.015768215517162346 0.02131427008390331
-0.02437885315735366 -0.045056895874024123 0.013051186933808044
-0.021816445048497925 -0.03583686094165698 0.011376585286048055
-0.0341570229952783 0.003805582083906819 -0.013483110346645965
-0.026155888186594 -0.0052763262312580965 -0.016532102868026588
-0.04844632150196789 -0.03183321405182365 -0.020270925709534014
-0.04590991023236982 -0.023766177568688644 -0.02637021895242195
0.01762900738155105 0.013440227248554693 -0.015207778192047992
0.010312662605715874 -0.007872423572648921 -0.00034548270432507595
0.006879109605979622 0.0064779405542069865 -0.014335398594381581
0.03214270743605514 0.013945460494544367 -0.0032180875651463756
-0.06045474573211978 0.023100234164720592 0.005653319609596942
-0.014474177825725448 -0.022983228449394866 0.006023997061098912
0.003948776027130761 -0.0015608020298233682 0.017301579963217118
0.0018334295060335527 0.00956845328726974 -0.004631825098927173
0.0062292626222278605 0.021325171558419606 -0.010362060053183566
0.006500296636045986 0.02214918307994664 -0.003566553025948683
-0.008705037881188123 -0.019968287845096765 0.011370364750799682
-0.00181550219085531 -0.011934484066411509 0.0032021890917068273
-0.01160688264451269 0.05188202992211642 0.021896524119279216
0.015865224564113198 -0.0004531207152116249 0.0004009773379228392
-0.010194494044155088 -0.003489781982338797 -0.011222348625606017
-0.04639968237506107 -0.027749720800279487 -0.001985502994107101
-0.01769506910997734 -0.021787141859151544 -0.0070933110972982326
0.01700760090248307 -0.0011097531438177743 0.0033568920267157934
-0.030402626262996453 0.022962633875234655 -0.03211845989427736
-0.024906862099933813 -0.00034910697170130526 -0.00419368791401789
-0.023791687249609648 0.06284848692534982 -0.044106376206913454
0.011692582055654087 0.000846629686421808 0.009618438886898447
0.0021180080118587763 -0.015196483399591903 -0.0025599730491747486
-0.027287432218155983 0.057327068938820606 -0.009282787432427953
-0.00539206328159453 -0.07757584911395525 -0.009665030180635338
0.03388032461630014 0.02394845047934949 0.00016286799538602965
0.014871926056135952 0.0069262307494557885 -0.004130732041933617
0.011185854020621062 0.012892202610796181 -0.0047432031064382615
0.032239325250704914 0.07201221278417191 0.003547161558629556
-3.334825491096506e-06 -0.01441359937100329 0.0022265735299688613
0.019935911059534794 0.005771186098768889 -0.010171205096599691
0.03497918550699114 0.0065628170363302854 0.0075565234469631894
-0.007623060075113646 -0.006942179487936805 -0.015808145039849425
0.037553853421416 0.0052680233315174204 -0.0034598722711910754
0.0197387908433263 -0.008094075457975018 -0.005348399312395829
0.014322760495834131 -0.016013002562258665 -0.0052466393767973555
0.022730604502615253 -0.006095054690818701 0.008630906090105394
0.002048826020424145 0.004440081212234894 0.013292109708374645
-0.0006615154324278301 0.01961770675746272 0.00727040956547133
0.030899780778769738 -0.004960729951804451 -0.007972831004509929
0.033255501267289406 -0.01485238577182626 0.008236245613494442
0.024950800717523206 -0.010083413547239866 -0.007277876811058046
0.02844458775403998 0.06803734129358109 0.0034273503928385976
-0.007627545680935759 -0.002896504913781929 0.005752718799863683
-0.005026556125251836 0.001219667862241986 -0.00563370427756154
-0.012443518268010604 -0.012101103952162726 0.004552674217226091
-0.011450850212897584 -0.0007431707003448054 2.261233797957086e-05
0.015313476481668729 -0.0050617959045573 4.161881254274646e-05
0.022646334917558752 -0.012696114495742794 -0.0021770379835015425
0.03407558428438333 0.003911567682545629 0.02264125357954322
-0.019326905478474855 -0.0029339956795783467 -0.027319146442415548
-0.02710098517781744 -0.002341229928175116 -0.017383981489331637
0.03404010290007112 0.012049827299633288 0.006712480389813413
0.00660353610353497 0.002908091944407436 0.006637148601030255
0.012983648278563822 -0.015210504314274132 0.03163834854371783
0.03949750143214873 -0.03870935746752621 0.020126488260603325
0.05451124514756196 -0.03721960432404788 0.012210161584280527
0.02652423286344542 0.01661213964306278 0.003209832166961
-0.004697105206496958 -0.048412493500538605 0.03126331405398582
0.010151842121932361 -0.03057388853004651 0.013154990101314212
0.00011480314765552766 -0.031547130746971457 0.013702532502753037
0.017461058090366886 -0.01733691076104813 -0.006642304624665812
0.01695341629834864 -0.0128763605579683 -0.01564195465695079
0.007805868400868891 -0.020402899433225638 0.03017665922240147
0.007440789677815699 -0.024248170492938464 0.02612384513303587
-0.008035261614362861 0.01266172807219569 -0.0025193303578876646
-0.01662123108554516 0.012508960562477502 0.009543316405872205
-0.01328210292437436 -0.035277777744700235 0.025888715178771005
-0.007412040941710899 -0.05602304950067204 0.04380077696495242
0.01073719263303413 -0.04387245937298502 -0.00792615984904926
-0.02024532185026345 -0.033095601938892945 0.02543275259187767
-0.02947643210908582 -0.026513772911249206 0.02314855291180931
0.007183819901400241 0.0015815921712268829 0.022195383548266397
0.00359307524988876 -9.56963179871764e-05 0.0063303007432575
0.0036234834396218466 -0.010759102676937927 0.04028353906500222
-0.011970556498601855 0.01868501650744705 -0.03011181939430859
-0.04133375204538528 -0.002187887515849911 -0.018344989267857943
0.007730558609619618 0.039318023821722024 0.027649113561187915
-0.030674331365544184 -0.06836762772678166 -0.007481448265910664
-0.004298618515652961 0.05140525023773374 -0.002952019141280287
0.005552231072286894 -0.02596059185090091 0.009217444827460957
-0.055976477297769715 -0.017343310484842066 0.01421375114354867
-0.02479314142882291 -0.03503577084819853 0.024577973305863626
0.017039439744777708 -0.03516249766906571 0.012776980285199198
0.006122410139012763 0.02202061886767774 0.0170659015129258
0.025802544182045275 0.001481991454467303 -0.019662374978443545
0.02190849637946554 -0.0027403187662399593 -0.019300451018272977
-0.044855030384620846 -0.008484812448803876 -0.005365751352826727
-0.06417929108465867 -0.02417804787888679 0.003079107805232336
0.027150743381247875 -0.02991010871509526 0.0032481976992665062
0.03320150160532071 -0.040697159157131776 0.016751258610715535
-0.019704781561619176 -0.005188818628537243 -0.02892849776212476
0.030888773943313567 0.006744335642848215 0.02165994379156498
0.0352981925518321 0.02151088688783197 0.022192032619413313
-0.016685534273218425 -0.006176541193172113 0.0029498900875375707
-0.04085716863114498 0.0017727620178483337 0.02362240739720811
-0.03369148059524288 -0.014130013625309518 -0.024596612385343344
0.005871609110961121 -0.02427317732409674 -0.014711126671241744
-6.184900948172955e-05 -0.009898254450197055 0.0031900350088754936
-0.00411123674820428 -0.08515914874591883 -0.0030757945705428883
-0.011748728182803016 -0.013611389973850143 0.00526425280173902
0.0028615653239534677 -0.017541349975335463 0.018868713720252665
-0.02283189680596338 -0.03146536676970576 0.015011558418116269
-0.06654694499170104 -0.0011836733229736388 -0.0004068180390388016
0.017694496390532288 -0.0087021715128578 0.010323813162810676
0.020447654301657996 0.01193094465690025 0.014780998342760776
-0.02040516294040288 -0.0605988836547336 -0.02190050700943837
-0.05030774168467844 -0.013079526363040314 0.038827459709406625
0.016487636564753754 -0.004768494255147327 0.0009265508607302983
0.013064433732739696 -0.026352559443733513 0.032406774840524295
0.00032824461567792465 -0.017997718341366778 0.0018410375570792226
0.0012354791086703085 -0.04247325022623168 -0.003537495333970154
0.004431569487181945 0.04308925172137886 -0.000936673200073001
-0.005166925292482483 -0.006138472290433948 0.008252849802948103
-0.016727965288551132 0.011077934302736037 -0.00649681094313286
0.028624698567105217 0.010515266625427276 0.005389769164404628
-0.031274410394662035 -0.00016714799487893813 0.032883448235181786
-0.024970150521448287 -0.0009488367311247351 -0.010043222690221653
-0.05911883241094124 -0.04796362745946108 -0.01732973381224009
-0.04394075758881124 -0.04306685770685935 -0.008386567679822824
-0.07859976942343318 -0.014161338946387858 -0.0037366762758432315
-0.01212578246456031 0.008401493678559137 0.04274968041131383
-0.04153173800491921 0.023115660046889763 -0.01650179900839912
0.0014627831893949147 -0.010440772638161795 -0.0011773320052526396
-0.007525200759400916 -0.05034421017921323 0.033354146880844496
-0.02054244345507763 -0.029190106079506298 0.024956346577503237
-0.03465833775146139 -0.01993164646627716 0.016804354504938907
0.03483700729497004 0.008586969893998642 -0.0015192019165067752
-0.024586951775923988 0.02176150246289231 -0.014532930962903009
-0.008843184993129131 -0.020620433327784245 -0.002289736321915253
-0.021278543968826055 -0.02435898128783699 -0.00044191596432142076
0.006426272980515006 -0.006064662540235791 0.004891863478139165
0.022126607580247534 0.00016215567187765427 -0.009629273928039177
-0.003927272293467241 -0.014362822908263623 0.021498209108560852
-0.013347873916948114 0.013269793013659636 -0.014230523610516016
0.0006917197373904941 0.0018558626591201578 -0.033743484868927906
0.0025865234714677284 -0.0048087407369102105 0.025342837491969646
-0.030786654542995076 -0.001827533084103725 0.002528000780904828
0.03510905215807513 -0.004758650527469327 -0.038197855770894566
0.02039809119236478 0.012978090114572556 -0.045595265304716914
0.019739713872883723 -0.0033878982445779823 -0.037394180329513874
-0.021602525038778127 0.006868108184274469 0.0062694521377698875
-0.043502153767402116 -0.012324435872452924 -0.0037388814310979073
-0.02619097098647475 -0.02528184286457957 0.024017647198440573
-0.01568908010895295 0.007308832338499755 -0.011587560400081628
0.004047543303688257 0.011974667824028257 -0.020202207236500836
0.0174198205999892 -0.013391032758188818 0.018279658279872747