# vtk DataFile Version 2.0
Really cool data
ASCII
DATASET UNSTRUCTURED_GRID
POINTS 584 double
-1.0 0.0 0.0
-0.9600374798207896 -0.027590413451835553 0.04
-0.9589620457797374 -0.028177574718636023 0.0
-0.9553815213922792 0.019675326217199102 0.04
0.6719637381218919 0.02110482676547816 0.0
0.6414775595248179 0.020020515529780993 0.04
0.6571281419012174 0.06 0.0
0.6240641012293764 0.022292119262118645 0.0
0.687851041884645 0.021313940245698455 0.04
0.7030120427199962 0.06 0.04
0.657128141901218 0.06 0.04
0.7030120427199952 0.06 0.0
0.6885310613992013 -0.0196061899732657 0.0
0.6720046167250797 -0.020579604775701428 0.04
0.6407079554435648 -0.019738458112036637 0.0
0.7171469290115033 0.021165332718839136 0.0
-0.7921016077200962 -0.06 0.04
-0.7604373514312079 -0.019298436119384588 0.0
-0.7479973317145423 -0.06 0.04
-0.7479973317145417 -0.06 0.0
0.7030120427199962 -0.06 0.0
0.7030120427199952 -0.06 0.04
0.6571281419012174 -0.06 0.04
0.7479973317145417 -0.06 0.04
0.7325903506195701 -0.020274227246539274 0.0
0.7176321617908783 -0.019839353713154383 0.04
0.7604373514312079 -0.019298436119384588 0.04
-0.8488906624897727 0.019856366527450334 0.04000000000000001
-0.8052789150181434 -0.019306901564895652 0.0
-0.805541091654972 0.020469431563422978 0.04000000000000001
-0.8203038938742353 -0.020636147377884773 0.04
0.897529295217204 0.022569895749215793 0.0
0.8488906624897727 0.019856366527450334 0.0
0.8569454102823642 0.029774901726562965 0.04
0.8777357995360431 0.06 0.0
0.9553815213922792 0.019675326217199102 0.0
0.95349853104827 0.02147987272312249 0.04
0.9103536180674616 -0.021283841161765512 0.0
-0.5450807564691462 -0.01715484187473429 0.04000000000000001
-0.5372746904547943 0.02439300391790418 0.04
-0.49049502097572617 0.000359712426279548 0.04000000000000001
-0.5409244119327052 -0.005150142234760652 0.0
-0.48901428549955095 -0.02776609156780287 0.019771763033692314
-0.4642419910175897 -0.06 0.04
-0.43891524330526177 8.673617379884035e-17 0.04000000000000001
0.7479973317145423 -0.06 0.0
0.9600486361512215 0.06 0.04
1.0 0.06 0.04
1.0 0.06 0.0
0.9192992165657531 0.06 0.0
0.7479973317145423 0.06 0.04
0.7309057796957548 0.02177174945441851 0.039999999999999994
0.7479973317145417 0.06 0.0
0.7613659684934695 0.020945326906433456 0.0
0.7736855084518748 0.020914979208800512 0.04
-0.8570647961856006 -0.015388027432140593 0.0
-0.8569454102823642 0.029774901726562965 0.0
-0.8649535140731797 -0.02016838668923704 0.039999999999999994
-0.1726925416005594 -1.214306433183765e-16 0.039999999999999994
-0.22806385632140147 1.0755285551056204e-16 0.039999999999999994
-0.2006519843784229 0.06 0.0
-0.22806385632140147 -1.1796119636642288e-16 0.0
0.438611990705585 -5.252150912499892e-05 0.04
0.41358849559293387 -0.06 0.04
0.4135884955929341 -0.06 0.0
0.4642419910175897 -0.06 0.0
0.4782715374234063 0.0302584611690398 0.019894876072988572
0.513903464641242 0.06 0.0
0.49049502097572617 0.000359712426279548 0.0
0.46424199101758934 0.06 0.0
0.46424199101758934 -0.06 0.04
-0.8164681441220105 0.022269284396602723 0.0
0.48912437490067595 -0.00041996788971368666 0.04
0.4642419910175897 0.06 0.04
-0.8353421249080566 0.06 0.04
0.8649535140731797 -0.02016838668923704 0.0
0.8973163514988121 0.02144006532192878 0.04
0.5625923446839085 0.06 0.04
0.6103276788742331 0.06 0.0
0.5943416245309461 0.018901239582525348 0.04
0.5790918012159274 0.021628695864523574 0.0
-0.593631917725493 -0.01946781888421301 0.04
-0.6103276788742336 -0.06 0.04
-0.6407079554435648 -0.019738458112036637 0.039999999999999994
-0.6264545933043166 -0.021459100211208025 0.0
-0.6103276788742331 -0.06 0.0
-0.6103276788742336 0.06 0.0
-0.6240641012293764 0.022292119262118645 0.04
-0.6414775595248179 0.020020515529780993 0.0
-0.5943416245309461 0.018901239582525348 0.0
-0.5790918012159274 0.021628695864523574 0.04000000000000001
-0.5625923446839077 0.06 0.04
-0.6103276788742331 0.06 0.04
-0.5625923446839085 0.06 0.0
-0.7325903506195701 -0.020274227246539274 0.039999999999999994
-0.7176321617908783 -0.019839353713154383 0.0
-0.7309057796957548 0.02177174945441851 0.0
-0.7736855084518748 0.020914979208800512 0.0
-0.7613659684934695 0.020945326906433456 0.04
-0.6571281419012174 0.06 0.04
-0.6719637381218919 0.02110482676547816 0.039999999999999994
-0.7030120427199952 0.06 0.04
-0.687851041884645 0.021313940245698455 0.0
-0.029521960903255984 -0.06 0.04
-0.05860957814939871 -6.938893903907228e-17 0.039999999999999994
-0.05860957814939863 5.898059818321144e-17 0.0
-0.08769719539554167 -0.06 0.0
-0.08769719539554144 -0.06 0.04
-0.2823507532564078 -5.204170427930421e-17 0.04
-0.25547572826437986 0.06 0.04
-0.25547572826438003 0.06 0.0
0.38751191920162714 6.938893903907228e-18 0.0
0.3352618020299945 -3.469446951953614e-18 0.0
0.36192316205531716 0.06 0.04
0.3619231620553172 0.06 0.0
-0.36192316205531716 0.06 0.0
-0.335244821032008 -1.1796296425746478e-06 0.0
-0.3352618020299945 -3.469446951953614e-18 0.039999999999999994
-0.38745316199969926 -7.894682722445895e-06 0.0
-0.3619231620553172 0.06 0.04
-0.3092257782484355 0.06 0.04
0.28235075325640757 5.551115123125783e-17 0.039999999999999994
0.30922577824843556 -0.06 0.0
0.335244821032008 -1.1796296425746478e-06 0.04
0.3092257782484355 -0.06 0.04
0.36192316205531716 -0.06 0.0
0.38745316199969926 -7.894682722445895e-06 0.04
0.3092257782484355 0.06 0.0
-0.38751191920162714 6.938893903907228e-18 0.04
-0.28235075325640757 5.551115123125783e-17 0.0
-0.30922577824843556 0.06 0.0
0.6103276788742336 -0.06 0.0
0.593631917725493 -0.01946781888421301 0.0
0.6264545933043166 -0.021459100211208025 0.04
0.4889627886584896 -0.027603176797077415 0.020155725176282127
0.583287522480325 -0.023728770665855194 0.039999999999999994
0.5450807564691462 -0.01715484187473429 0.0
0.5409244119327052 -0.005150142234760652 0.04
-0.48912437490067595 -0.00041996788971368666 0.0
0.3619231620553172 -0.06 0.04
-0.657128141901218 0.06 0.0
0.9600374798207896 -0.027590413451835553 0.0
1.0 0.0 0.04
0.9589620457797374 -0.028177574718636023 0.04
0.5625923446839077 -0.06 0.04
0.5625923446839085 -0.06 0.0
0.7766984080639845 -0.02052537972713625 0.0
-0.438611990705585 -5.252150912499892e-05 0.0
-0.583287522480325 -0.023728770665855194 0.0
-0.9600486361512215 0.06 0.0
-0.95349853104827 0.02147987272312249 0.0
-0.9192992165657539 0.06 0.0
-0.9192992165657531 0.06 0.04
-1.0 0.06 0.0
-0.14473309882269625 -0.06 0.04
-0.14473309882269605 -0.06 0.0
-0.11621514710911887 -1.214306433183765e-16 0.0
-0.17269254160055947 1.1796119636642288e-16 0.0
-0.14473309882269625 0.06 0.0
-0.11621514710911884 1.214306433183765e-16 0.039999999999999994
-0.8353421249080566 -0.06 0.0
-0.8353421249080575 -0.06 0.04
-0.8973163514988121 0.02144006532192878 0.0
-0.897529295217204 0.022569895749215793 0.04
0.11621514710911887 -1.214306433183765e-16 0.039999999999999994
0.05860957814939871 -6.938893903907228e-17 0.0
0.05860957814939863 5.898059818321144e-17 0.039999999999999994
0.08769719539554144 0.06 0.04
0.6103276788742336 0.06 0.04
0.5139034646412424 -0.06 0.0
0.9096368506350345 -0.020963842829632554 0.04
0.805541091654972 0.020469431563422978 0.0
0.8052789150181434 -0.019306901564895652 0.04
0.8203038938742353 -0.020636147377884773 0.0
0.08769719539554144 -0.06 0.0
0.08769719539554167 -0.06 0.04
0.9192992165657531 -0.06 0.04
0.8164681441220105 0.022269284396602723 0.039999999999999994
-0.9103536180674616 -0.021283841161765512 0.04000000000000001
-0.8777357995360431 -0.06 0.0
-0.9096368506350345 -0.020963842829632554 0.0
0.8570647961856006 -0.015388027432140593 0.04
0.7921016077200956 -0.06 0.04
0.8353421249080566 -0.06 0.04
0.7921016077200962 -0.06 0.0
0.4135884955929341 0.06 0.04
0.43891524330526177 8.673617379884035e-17 0.0
-0.7921016077200956 -0.06 0.0
-0.08769719539554144 0.06 0.0
0.14473309882269605 0.06 0.0
0.1726925416005594 -1.214306433183765e-16 0.0
0.11621514710911884 1.214306433183765e-16 0.0
-0.029521960903255984 0.06 0.0
0.0 0.0 0.0
0.17269254160055947 1.1796119636642288e-16 0.04
0.14473309882269625 0.06 0.04
0.0 0.0 0.04
0.2006519843784229 0.06 0.04
0.22806385632140147 -1.1796119636642288e-16 0.04
0.22806385632140147 1.0755285551056204e-16 0.0
-0.6720046167250797 -0.020579604775701428 0.0
-0.7030120427199962 -0.06 0.04
-0.7030120427199952 -0.06 0.0
0.25547572826438003 0.06 0.04
0.30922577824843556 0.06 0.04
0.25547572826437986 0.06 0.0
-0.02952196090325599 0.06 0.04
0.2006519843784232 -0.06 0.04
0.14473309882269605 -0.06 0.04
0.2006519843784229 -0.06 0.0
0.14473309882269625 -0.06 0.0
0.2823507532564078 -5.204170427930421e-17 0.0
-0.36192316205531716 -0.06 0.04
-0.41358849559293387 -0.06 0.0
0.5372746904547943 0.02439300391790418 0.0
0.5139034646412424 0.06 0.04
-0.5139034646412424 -0.06 0.04
0.41358849559293387 0.06 0.0
-0.7171469290115033 0.021165332718839136 0.04
-0.7479973317145417 0.06 0.04
-0.7030120427199962 0.06 0.0
0.08769719539554167 0.06 0.0
0.029521960903255984 -0.06 0.0
-0.02952196090325599 -0.06 0.0
0.02952196090325599 -0.06 0.04
0.02952196090325599 0.06 0.0
0.029521960903255984 0.06 0.04
-0.47805793986482265 0.03008719549728311 0.01940109733029794
-0.4642419910175897 0.06 0.0
0.6103276788742331 -0.06 0.04
1.0 -0.06 0.04
0.9600486361512205 -0.06 0.04
0.9600486361512215 -0.06 0.0
-0.3092257782484355 -0.06 0.0
0.877735799536044 -0.06 0.0
0.8777357995360431 -0.06 0.04
-0.41358849559293387 0.06 0.04
-0.4135884955929341 0.06 0.0
1.0 -0.06 0.0
1.0 0.0 0.0
-0.14473309882269605 0.06 0.04
-1.0 -0.06 0.0
-0.9600486361512215 -0.06 0.04
-1.0 -0.06 0.04
-0.7921016077200962 0.06 0.0
-0.9192992165657531 -0.06 0.0
-0.9600486361512205 -0.06 0.0
-0.7921016077200956 0.06 0.04
-0.7766984080639845 -0.02052537972713625 0.04
-0.5625923446839085 -0.06 0.04
-0.5625923446839077 -0.06 0.0
-0.877735799536044 -0.06 0.04
0.7921016077200962 0.06 0.04
-0.3619231620553172 -0.06 0.0
-0.7479973317145423 0.06 0.0
-0.8777357995360431 0.06 0.04
-0.4135884955929341 -0.06 0.04
-0.46424199101758934 -0.06 0.0
0.513903464641242 -0.06 0.04
-1.0 0.0 0.04
-0.877735799536044 0.06 0.0
-0.30922577824843556 -0.06 0.04
[...]
POINT_DATA 584
VECTORS displacement double
-0.0007004807711290165 -0.024590332513696765 0.016750315216719405
0.006227925226397321 -0.04928640178297238 0.008641620258310598
-0.011565003165734803 -0.04145733241263997 0.0015745108270860699
0.035579794217870525 -0.04412226869401197 -0.007403139309058177
0.0008083962491006702 0.0002822512123464885 -0.00022420158518944512
0.0005233540351606218 -0.0009233338453127408 0.00014322726050675075
0.0008258230953370361 -0.00048586567454984993 -8.440530225141394e-05
0.0002740981096032239 -0.0005852140918576874 -0.000400733748897689
0.0006168705560504677 0.0004254803617175387 -0.0001033835973950011
0.001010021962235461 0.0006848820683282018 -0.00034398364383566226
0.0008883829415941886 -0.00031168977728819716 -0.00027735691151761386
0.0010132430506364942 0.0003117992225748847 -0.00022481355064762668
-0.0002669300477222536 0.00015652050866801504 -0.00014334671316547338
-0.0003813987648664786 0.00035721747951939094 -0.00023120766277247306
-1.0128688903962596e-05 0.0008688626949476456 -0.0002837077099102197
0.0004891524299652109 -0.00030438483217258604 -7.323544692151217e-05
-0.013592425697386222 0.044441957905620666 0.0012073110915185726
0.016568641179037117 0.018501515961686445 -0.0023696999082816164
-0.02082570998758007 -0.009229828728705697 0.002080774064338638
-0.02855720186221241 0.006019774227375857 -0.005332627869440873
-0.0010111292543678817 0.00018471057969679015 -0.00015671094359927075
-0.0012702370357850227 0.00010060819447609362 -0.0003389906112255928
-0.0008724866601377281 -0.0009183667300260074 -0.0006309556026232849
-0.0006558258904891242 0.0003026819463925689 -9.84085242311454e-08
-0.00013731729250110618 -0.00012233858849765587 -0.00012981885824518125
-0.0003289994459546573 -0.000289364013644464 -7.269455060914815e-05
-0.00012078647986174484 0.0004610762748586386 2.4142997860355835e-05
0.013733956051799954 -0.024108793703631448 0.00021417148782477245
0.003082728876128081 0.011897336872134115 -0.0031366362311069634
0.005633320539062495 0.025041096269486546 -0.0006902225100455609
0.00912879278986564 -0.014025332343803971 -0.003982296438585979
0.000523100559434554 0.00029380949816179347 0.0001478627785536547
0.0006443002981653078 -9.807624284788049e-05 0.00012751334922967014
0.0006089202561475907 0.00040493294136673255 0.00012609264339170695
0.0014971892370487885 8.361697977228436e-05 7.034191670015202e-05
0.00016666880059250543 -4.9591647961084466e-05 0.00014008007705245337
0.00020967071626775248 -0.00012389303141521077 0.0001809425877884517
-0.00017006446546288478 0.00024999637207339195 8.863114173529539e-05
0.005854296152034462 0.00025423516670634746 -0.003399828074470305
0.0008920967215836048 -0.009661881983845537 -0.006261739528032861
0.005028987291893862 0.0010149051499583138 -0.007018339836366283
0.0032635366241018 -0.004186588337651217 -0.005895335552374108
0.023551273215499498 -0.013689323616077602 -0.00231050276222314
-0.0069822006601828095 -0.06387502549316434 -0.0050912187090182606
-0.004144750969497674 0.023083063155633257 -0.002907113631724055
-0.0006859637278209925 0.00020877114855493388 -2.545603608814582e-05
0.0014195246949541128 -0.00012475486627387602 0.0002084661246235994
0.0013145026276909929 -0.0008624806786125626 0.00027299328678876897
0.0013561795567675772 -0.0007504451061104085 0.00023585968979389525
0.0014417539908531927 0.0005091840198834006 0.00015751618316820376
0.0006561649401982135 -0.0011522256082963766 -2.7564385101405062e-05
0.0003234340726725078 -0.0007295800181322151 -5.451379251838338e-05
0.0007543100992088435 -0.0008242829458580891 -5.575467337760216e-05
0.0007465670163112098 -0.00015743330567192645 -0.00012250952855476593
0.0006448728743780126 0.00023772745585980108 5.6393417175904444e-05
0.01733382947236082 0.0017343664222966395 -0.00831426112239267
0.0022165570493489707 -0.004125631804809854 0.0066514530170283335
0.027342540710950575 5.880837565231905e-06 -0.0011373477441602468
-0.0027262070572300653 -0.014181021400836612 0.0004197833970308219
0.006230388492659873 0.015741770289109044 0.0003390504165178842
0.004957775639145595 0.01977638163388113 -0.00018750324225128573
0.002986994022078662 0.012845575738836441 0.0007593120981743444
-0.00025161278318473854 -0.0012164960007041352 -0.00034469001638548995
-0.001499279702985253 -0.0036306039545042855 -0.00033586097946372806
-0.0015417567286164704 -0.002990307624828439 -0.00010958559161573412
-0.0016473605954768088 0.00037328097698709184 2.9309621787909596e-05
-0.0004167348631272265 0.0004179839601818764 0.0001960459893898198
0.00038982075762078027 -0.001804907136594096 0.0002960175818439396
-5.104268565454415e-05 0.0007431974717898138 4.3210669066035296e-05
0.00023450609848563249 0.0005253166252771966 -0.00011031980687711975
-0.0012509452972431427 0.0004472090160784767 -0.00010186520011116881
0.014314312839951063 0.018613953611097522 0.0035235081629027094
-0.0001980275802852127 0.0005435235139655815 0.0003126513624721803
0.0006883818205271823 0.0018146885835841763 -0.00019513392953334984
-0.05819471047935085 -0.009960996592704108 0.005415571872434276
-7.87884452111899e-05 -0.00022448903286539926 8.98230021997038e-05
0.0003103872885184434 0.0002284483734730789 0.00011442280906354325
0.0002425194073215975 0.0019792323602902335 -0.0003262615429582586
0.0006620616093416153 -0.0010919380051820189 -0.00020485845914852116
-0.0004728067678792295 0.00023250698454359433 -0.00014366701379150314
0.0001463693437907529 0.0003953347000629355 0.00014177793183527699
0.0037807252352270618 -0.030721487401781947 -0.016675110975721334
0.007691915544040779 -0.0005858885319971321 -0.03873639884531942
0.02033250364982696 -0.038433747469154955 0.00362177781249965
0.005135255819336466 -0.004529135914643972 -0.01074061492807597
0.008036221090766339 9.922387108784488e-05 -0.030760478284156824
-0.005141477829108202 0.06118484340840305 0.009249069098760469
0.02046516687553968 0.024268157203544718 -0.005690902376883241
0.017633276630277625 -0.0040519124899355075 0.006691185816468708
-0.005246656411070932 0.017367150636610724 -0.0011385252266988063
-0.008688404539119303 -0.0013452907075145982 -0.009377744394658497
-0.009412633993874497 -0.027322596214733135 -0.0003565367189921699
-0.014087817884836457 0.0866523926694232 -0.005922462081755491
-0.0068911007365365234 -0.010883227598189613 -0.0007352978764536214
0.014064158868663603 -0.014320210412978823 0.00044504295674098227
0.008952645440899971 -0.0152358095664196 0.008253895247576366
0.039422259727920565 0.0022569014814336264 0.0028726262528656894
-0.007156213371498235 0.0009094924660743189 -0.0006435460658803044
-0.00040810629228458953 -0.03317494221698011 0.0066012765036647155
-0.017816056562991758 -0.05129962834270252 0.016869871683678546
0.017478521467179986 -0.039572691534821534 0.012917299468294466
-0.0071190635305075495 0.10432028936735298 0.027774179458719645
0.006509341205871202 0.025028137657154177 0.01779780305002276
-0.002117845656452422 -0.004347431244508013 0.0014538352354451771
-0.00203259264480177 -0.0012730706131403988 -0.001017387289277586
-0.00029216724913898307 -0.002549524615980435 0.00026660491637219214
0.0013193631739597594 -0.00649635133966384 0.002071197113419648
-0.0014186196594147672 -0.006655184461171699 0.0008098360652167126
-0.000343040721393848 -0.019774574814569016 0.0017667028386212753
-0.004477581152340293 -0.02397180293848454 0.004332529807274983
-0.0047480610127376985 -0.018927665563282892 -0.0006077990838890557
0.0010726645962658202 0.0004288617364077708 4.129453824109636e-06
-0.0010364222064767749 -0.00039331396111261946 0.0001933824542242273
0.0007069997788798031 -0.003653599607951623 0.0003055770785766339
0.00046682934156614406 -0.0031543559421347493 0.00017772266078428935
-0.0026645665525943177 -0.020445593498415092 -0.0026293484217098043
0.002475977447402141 0.008134861639345585 0.0029309023645158294
0.00596865941003314 0.014088813735825935 0.0009724517284302744
0.004702104522780935 -0.02164161849203205 0.0022458268145060176
0.005110355920894182 -0.02649760572450082 0.002262367555493812
0.011633242587642595 0.022040726997082434 -0.005622270304866291
0.0021664536591629708 -0.0005616099785141876 0.0005343746972535664
-0.0015084783400317802 -0.005272338459124875 0.0003147042813474476
-0.0010023045063827214 -0.0006194231467079013 0.00014883095659299996
-0.0013618591459235302 -0.007589227293444573 -0.0009376838214687597
-0.001727046713353199 0.004306805298544759 0.00019954490382045951
0.0015372063273415264 0.0005869971436105966 0.00042939242107884834
0.0010060479719603327 0.0035051479322360437 8.2962008061082e-05
0.003243925233173487 -0.02226483166617896 0.002541995539607239
-0.0020582577431362374 -0.017936203459819812 0.0011971516098898444
0.00633093057064001 0.014169548041882325 -0.0015807264911675068
-0.0001363961010021618 0.0014816240140758214 -0.00035050986286069315
-0.000715218705175452 -0.00030436573262927053 -3.586953389581334e-05
-0.000450249263764406 0.001810248745046487 -8.821791761209552e-05
-0.0007130470899620027 0.001052187997498601 8.420970370892793e-05
-0.0007704418352085132 -0.0016691369901461076 -0.0002572510275429389
0.0001820851864018438 -0.00025523449719612614 -6.822192113721774e-06
0.0005790441722155601 -5.662379467343816e-05 6.37960073555884e-05
0.0030734737327423843 -0.007913238884219501 -0.0018368103299955074
-0.0016955200259272764 0.005726339729920505 0.0011244941300551034
-0.005331347871224746 -0.03167211323034525 0.017975006489286516
-0.0002048884010384872 -7.814297358053126e-05 4.03423549866168e-05
-1.8088321034967175e-05 -0.00024220858217835573 0.0001795973666194899
-0.0001955401031685583 -0.0002114125233966829 7.215240004265239e-05
-0.001131104052986814 -0.0023392438984418864 -0.0004915515563319099
-0.0010229651924692983 -0.0015389267338692537 -0.00047282617354548904
-5.14581459506925e-05 0.00015323590622909453 7.006888895510433e-05
-0.00398832750974619 0.018249626243267484 6.468445185051004e-05
0.002542943981716972 -0.003660779964555194 -0.01663797841736247
-0.040630451495880376 -0.011163601618962732 0.0015344510098132095
0.025964779203045338 -0.03432734007023325 0.004294961748052684
-0.05226785402145847 0.03443219389960414 0.0008949596631246039
-0.05483441970115672 0.07470965908402942 -0.023810454772824324
-0.020851299180030855 -0.08066786704609229 0.002456299832886294
0.00296490511322308 0.006846808477940883 0.0034931099135666653
0.004521373822655371 0.005537184665947257 0.0005782352091551579
0.004651775019165113 0.003318886017646588 -8.22579710614779e-05
-0.0038023539707984968 -0.01223930347925201 0.00011540081592009673
-0.003042174966119006 -0.0197354532016054 -0.0015005437986815768
0.005792762252625924 0.005396858880654144 0.0008728467904814168
-0.019015421014062398 -0.023108391263255965 -0.01445066883325763
-0.00673308190973748 -0.04376943318087168 -0.009517629008446363
0.013818516597699422 0.012203181595017688 0.0012518351425082036
-0.002581454255108598 0.005345337401739371 -0.003414831123810677
-0.0014066875936033058 0.0006902537971131203 0.00027267869933428996
0.0016052407983148229 -0.0007239022172146806 0.0010672529888637915
0.0017577009232908874 -0.0005096095926772528 -8.492147315749225e-05
0.0003416472505868466 0.0014974554769649061 0.00012311786891739957
0.000785939931058521 -0.001830999951801616 -0.0002529665556402101
-0.0013202934029915355 0.0017243774709869116 3.339497055462539e-05
-0.00013925902073737718 0.0002603781176308516 6.832820629945845e-05
0.00046352035079621996 0.0001792846614221381 -1.8094490643118144e-05
-0.00015022659575941098 0.00011787836838034602 -4.342722262812448e-05
-0.0001858660925625287 4.109983975090837e-05 7.408733936447872e-05
-0.0021005945618995485 -0.008329738701216035 0.0010998384181410972
-0.0007918036236758064 -0.01022724446131628 0.00020176273690716652
-0.0006879866937181961 0.00017651995266959293 4.600166413724051e-05
0.0003248878611486118 3.1202246262572885e-05 4.6030939394448614e-05
0.013508118518547992 0.0036961835549150696 -0.008235317007938088
-0.0282150834139339 0.05614453718078906 -0.0290589257359588
-0.0023950076949665346 0.021340847020603574 -0.012307256949302832
-3.959273060190506e-05 -0.00035155946055802654 -1.6700453037683678e-05
-0.0007066147195692485 -0.00028167974061677343 3.063382010801115e-05
-0.0007431925984117598 -9.444613046739417e-05 -6.245415902462044e-06
-0.0007447105089532753 -6.332083442663811e-05 -2.9322896296496178e-05
0.0016022307638093366 0.0009546968107822231 -0.0001589710751753532
5.426121859619016e-05 -0.0008380054053254433 3.329867478829223e-06
-0.020363510689714304 0.04003778363246787 -0.004138968451783101
0.0018625795980028842 0.01060585099848275 -0.0020833057185898575
0.0016826468622092008 -0.0027040384639561267 0.00045171942048498386
0.0017016890744214494 -0.0007210108694463435 0.0001223158245992605
-0.001565877463211314 0.0003321116720921877 0.0003597312777160432
-0.0001693656593964825 -0.006393409410250228 -0.001411848470056655
5.246003695002873e-05 -0.00040730583392335323 0.0009591551854871153
0.0019784400327593596 -0.001321507430612967 -0.0001682404369684319
0.0018332429743570236 -0.0036034611566747106 0.0004684155452216173
-0.00038277053586113394 0.0015538199392785609 0.0006889948812323158
0.0015604260374089528 0.005445612422184437 -0.0008082305859174134
-0.0029899243278004436 0.00032556706550981 -6.694452979898237e-05
-0.0024577202888971836 0.00018234584317983202 6.828908534294919e-05
-0.023800489804974286 0.0373846081926075 -0.007168373976710069
-0.03631776451900107 -0.07078630169124323 0.0011152270517799825
-0.04850937920931118 -0.03904699803153368 -0.011901437259659281
0.0017093586766024232 -0.006306279274392324 0.0006182123816949503
0.0009791022596353778 0.005444911658653845 -0.0010555596684210234
0.0010619894086846826 -0.005645909498389114 7.172052363476665e-05
0.0006716296336617589 -0.009532803574697067 0.001125365020365642
-0.00272737503535997 -0.010244301348145237 -0.0012014192116036534
-0.003525273002891029 0.00973647706392455 0.0023560048942086425
-0.002063570399275064 -0.008536772926741739 -0.0006499916450420892
-0.0028077569001900837 0.006538721410948915 -4.433887498006836e-05
0.0017333366689456949 -0.0005738804639372232 0.00013433228936331925
0.0031983282523577335 -0.019088802777317657 0.005019816286158527
-0.007608490394408876 0.029669724069150364 0.0053897521166461895
0.000885708514386458 -0.0005214565916919032 -9.895946269141804e-05
0.0008133258068954624 -0.0027353446645097565 0.0005831166228904387
0.018774332772437823 0.023417099902360947 0.010314392857344664
0.0012204077229469336 0.0010847511124579632 -1.778001853195175e-06
0.026659353900289874 0.05400858860132473 0.012122024716561926
-0.0395518890121537 -0.13361794551135428 0.009289933608499246
0.00757994049525629 0.07856735925210598 0.01553370411989864
0.0012665547103415306 0.0009716031430107331 0.00023983202744498963
-0.0008144658586087758 0.004889550238501954 0.0018363582459603178
-0.0010778951373893245 -0.004371552845535465 0.0017208011352898523
-0.0019052654112428828 0.006257583819205899 0.0022168372372225677
0.001966416003638014 0.0007728095362343983 -0.00021127841654802398
0.0015883012379454076 0.002102753531846599 -0.0004130099812253501
-0.0021326545464675304 -0.0024086410239643158 -0.0047440760410677775
-0.0006033659487270744 0.0013215167082775655 -0.0013959760372179546
-8.849995609320674e-05 0.001863826937905662 -0.00010259054999442705
-0.0004930945904692607 -0.000377244407536138 -7.017684812812632e-05
-0.0005875058843355745 -1.9240995954428516e-05 -4.974065880677242e-05
-0.0006090778129858598 -2.4043721621116337e-05 -7.655587862591822e-06
-0.005648407181705521 0.001392235439065401 0.003595931179248697
-0.0006250686913168691 -0.00017055896979879768 1.8529196976769885e-05
-0.0005822295122949972 -0.0002682586749507407 1.2671969219424451e-05
0.0190755481888224 0.01448063046833276 -0.003079010956661073
0.007887673608212754 0.00856279709524712 -0.0030213047307463014
-0.000529484678622342 -0.00024650286273941306 -5.600746925831402e-05
-2.482710041594151e-05 -0.00024016691998058777 8.952094779278155e-05
-0.0002208441989715349 -0.025381757158554365 0.001753160238086389
-0.06539778198000902 0.056971155655920265 0.028069498562942757
-0.05242513487016526 -0.05423801999377549 -0.0028089640999580706
-0.05882097077758556 0.09337745740741424 0.03889473118556335
-0.04665743111193718 0.06088569077752409 0.005871078357090122
-0.048707756512958895 0.024015351856558488 -0.02212603481739719
-0.05823428037914894 -0.031935882836020064 0.001421821828208519
-0.06731418559421823 0.07985222280774466 0.004686073744117527
0.00758855122434843 0.034686174805614166 0.003359096297463921
0.024893846856436763 0.023286048718671553 -0.004928877818664213
0.021090242354648556 0.016940427375413878 -0.014198829819115476
-0.018124478922019183 0.08798456636477547 0.0003304171839616183
0.0006332765327611091 0.0008414118842582881 -8.639697906972532e-06
0.006794076278366852 -0.01795506093125355 0.004121263045910211
-0.030423645744191576 -0.08247027019828733 0.020124006898465933
-0.05711611704502939 1.8583959865164316e-05 0.017255607011091755
-0.01800375405642611 0.042155594214922425 0.007568878328095348
0.012200497238345319 -0.041269432778256156 -0.004509313713373114
-0.0007882085033857471 0.0020225571424773194 0.00016038846178901908
0.03008374983655835 -0.030210903627022775 0.054928948579748685
-0.049165675486626946 0.005995799894040207 0.015235007478562223
-0.010011858955322415 0.0017931874865707736 0.005735659399097351
-8.945637628838248e-05 -0.002724530485951735 0.0034404560701072626
0.003284118091767817 0.015655159915527656 -0.00321777921521774
-0.0023511598854652235 0.007873356344110193 0.0006164697516910222
0.004616709218160169 -0.0017514904847028934 0.0006550887680232988
-0.030145887094774806 0.048381028631055506 -0.028788281769702623
-0.04783788302900263 0.04124874241483385 -0.01813396674239217
-0.001441872344737705 0.005462685803994817 -0.0013855014407980512
-0.033454690796560264 0.018925448542602964 0.005693121086698667
0.0014010303840969744 -9.366529424896956e-05 0.00019044634211404528
0.007994870597768265 -0.08160207431936813 -0.013142279799230381
-0.00046197401116937053 0.0045424922687076945 -0.009726290431759235
0.008197224964964887 -0.015770975710879095 0.0015283547959456078
-0.04974408130442057 0.09607751401033396 -0.024735786897953707
0.0016624885041956964 -0.0003816886356372984 0.00022905216891386048
0.0017119073467268644 0.0006749904519926646 0.0003099305346817199
-0.0022925948881069944 0.009863900666028857 0.0014891571514548572
-0.0007477840197439158 -4.03943986557057e-06 3.357764597236192e-06
0.02729163462019895 0.009119707247035383 -0.0076223934083608546
0.007052017729970821 0.028903172167876166 -0.004776043488559591
-0.047221702163488734 0.00014595109525596123 0.010530740815900747
0.0008637446672400277 -0.0008505985676931571 -0.0003373871035290298
0.0006521619983137903 -0.0013610972893521596 0.00014231574400470817
0.0007669828531858075 0.0006262153095225751 -0.00014947823410542922
-0.0006576665633601837 0.000263886860452979 2.056132891347943e-06
0.0004386316564104019 0.0012717748536626176 -0.0002593931730555144
-0.06317190200891179 0.13501847885666676 -0.008078987769833084
-0.0006990021019181913 -0.00025651221963159164 -0.0003318880961555256
-0.010494370298186558 0.0016997141983962633 1.1090611515809451e-05
-0.004475870758976834 -0.00023029107504975152 0.0013205182999118594
0.00032128929936147663 0.00462739971217672 0.0003028524794448706
0.01153533383468225 -0.022641929004818123 0.014532911257477094
0.04844138600671551 -0.07618693754232272 0.02557282592843237
0.024686848928252864 -0.10499545724892148 0.012216347862374374
-0.011037184927025219 -0.01716822557483859 0.006507887374563833
-0.001730107261397717 0.0018033690083130137 0.0003091076142276641
0.01561030863075067 0.040368603497646594 0.004086012181861445
0.033458795784787575 -0.04274491237824663 -0.0010680123649454963
-0.0027445742904371605 0.00026038104217125115 0.004020396721375962
-0.00887129635173103 -0.0078094694826126914 0.0030841342963980377