# vtk DataFile Version 2.0
Really cool data
ASCII
DATASET UNSTRUCTURED_GRID
POINTS 584 double
-1.0 0.0 0.0
-0.9600374798207896 -0.027590413451835553 0.04
-0.9589620457797374 -0.028177574718636023 0.0
-0.9553815213922792 0.019675326217199102 0.04
0.6719637381218919 0.02110482676547816 0.0
0.6414775595248179 0.020020515529780993 0.04
0.6571281419012174 0.06 0.0
0.6240641012293764 0.022292119262118645 0.0
0.687851041884645 0.021313940245698455 0.04
0.7030120427199962 0.06 0.04
0.657128141901218 0.06 0.04
0.7030120427199952 0.06 0.0
0.6885310613992013 -0.0196061899732657 0.0
0.6720046167250797 -0.020579604775701428 0.04
0.6407079554435648 -0.019738458112036637 0.0
0.7171469290115033 0.021165332718839136 0.0
-0.7921016077200962 -0.06 0.04
-0.7604373514312079 -0.019298436119384588 0.0
-0.7479973317145423 -0.06 0.04
-0.7479973317145417 -0.06 0.0
0.7030120427199962 -0.06 0.0
0.7030120427199952 -0.06 0.04
0.6571281419012174 -0.06 0.04
0.7479973317145417 -0.06 0.04
0.7325903506195701 -0.020274227246539274 0.0
0.7176321617908783 -0.019839353713154383 0.04
0.7604373514312079 -0.019298436119384588 0.04
-0.8488906624897727 0.019856366527450334 0.04000000000000001
-0.8052789150181434 -0.019306901564895652 0.0
-0.805541091654972 0.020469431563422978 0.04000000000000001
-0.8203038938742353 -0.020636147377884773 0.04
0.897529295217204 0.022569895749215793 0.0
0.8488906624897727 0.019856366527450334 0.0
0.8569454102823642 0.029774901726562965 0.04
0.8777357995360431 0.06 0.0
0.9553815213922792 0.019675326217199102 0.0
0.95349853104827 0.02147987272312249 0.04
0.9103536180674616 -0.021283841161765512 0.0
-0.5450807564691462 -0.01715484187473429 0.04000000000000001
-0.5372746904547943 0.02439300391790418 0.04
-0.49049502097572617 0.000359712426279548 0.04000000000000001
-0.5409244119327052 -0.005150142234760652 0.0
-0.48901428549955095 -0.02776609156780287 0.019771763033692314
-0.4642419910175897 -0.06 0.04
-0.43891524330526177 8.673617379884035e-17 0.04000000000000001
0.7479973317145423 -0.06 0.0
0.9600486361512215 0.06 0.04
1.0 0.06 0.04
1.0 0.06 0.0
0.9192992165657531 0.06 0.0
0.7479973317145423 0.06 0.04
0.7309057796957548 0.02177174945441851 0.039999999999999994
0.7479973317145417 0.06 0.0
0.7613659684934695 0.020945326906433456 0.0
0.7736855084518748 0.020914979208800512 0.04
-0.8570647961856006 -0.015388027432140593 0.0
-0.8569454102823642 0.029774901726562965 0.0
-0.8649535140731797 -0.02016838668923704 0.039999999999999994
-0.1726925416005594 -1.214306433183765e-16 0.039999999999999994
-0.22806385632140147 1.0755285551056204e-16 0.039999999999999994
-0.2006519843784229 0.06 0.0
-0.22806385632140147 -1.1796119636642288e-16 0.0
0.438611990705585 -5.252150912499892e-05 0.04
0.41358849559293387 -0.06 0.04
0.4135884955929341 -0.06 0.0
0.4642419910175897 -0.06 0.0
0.4782715374234063 0.0302584611690398 0.019894876072988572
0.513903464641242 0.06 0.0
0.49049502097572617 0.000359712426279548 0.0
0.46424199101758934 0.06 0.0
0.46424199101758934 -0.06 0.04
-0.8164681441220105 0.022269284396602723 0.0
0.48912437490067595 -0.00041996788971368666 0.04
0.4642419910175897 0.06 0.04
-0.8353421249080566 0.06 0.04
0.8649535140731797 -0.02016838668923704 0.0
0.8973163514988121 0.02144006532192878 0.04
0.5625923446839085 0.06 0.04
0.6103276788742331 0.06 0.0
0.5943416245309461 0.018901239582525348 0.04
0.5790918012159274 0.021628695864523574 0.0
-0.593631917725493 -0.01946781888421301 0.04
-0.6103276788742336 -0.06 0.04
-0.6407079554435648 -0.019738458112036637 0.039999999999999994
-0.6264545933043166 -0.021459100211208025 0.0
-0.6103276788742331 -0.06 0.0
-0.6103276788742336 0.06 0.0
-0.6240641012293764 0.022292119262118645 0.04
-0.6414775595248179 0.020020515529780993 0.0
-0.5943416245309461 0.018901239582525348 0.0
-0.5790918012159274 0.021628695864523574 0.04000000000000001
-0.5625923446839077 0.06 0.04
-0.6103276788742331 0.06 0.04
-0.5625923446839085 0.06 0.0
-0.7325903506195701 -0.020274227246539274 0.039999999999999994
-0.7176321617908783 -0.019839353713154383 0.0
-0.7309057796957548 0.02177174945441851 0.0
-0.7736855084518748 0.020914979208800512 0.0
-0.7613659684934695 0.020945326906433456 0.04
-0.6571281419012174 0.06 0.04
-0.6719637381218919 0.02110482676547816 0.039999999999999994
-0.7030120427199952 0.06 0.04
-0.687851041884645 0.021313940245698455 0.0
-0.029521960903255984 -0.06 0.04
-0.05860957814939871 -6.938893903907228e-17 0.039999999999999994
-0.05860957814939863 5.898059818321144e-17 0.0
-0.08769719539554167 -0.06 0.0
-0.08769719539554144 -0.06 0.04
-0.2823507532564078 -5.204170427930421e-17 0.04
-0.25547572826437986 0.06 0.04
-0.25547572826438003 0.06 0.0
0.38751191920162714 6.938893903907228e-18 0.0
0.3352618020299945 -3.469446951953614e-18 0.0
0.36192316205531716 0.06 0.04
0.3619231620553172 0.06 0.0
-0.36192316205531716 0.06 0.0
-0.335244821032008 -1.1796296425746478e-06 0.0
-0.3352618020299945 -3.469446951953614e-18 0.039999999999999994
-0.38745316199969926 -7.894682722445895e-06 0.0
-0.3619231620553172 0.06 0.04
-0.3092257782484355 0.06 0.04
0.28235075325640757 5.551115123125783e-17 0.039999999999999994
0.30922577824843556 -0.06 0.0
0.335244821032008 -1.1796296425746478e-06 0.04
0.3092257782484355 -0.06 0.04
0.36192316205531716 -0.06 0.0
0.38745316199969926 -7.894682722445895e-06 0.04
0.3092257782484355 0.06 0.0
-0.38751191920162714 6.938893903907228e-18 0.04
-0.28235075325640757 5.551115123125783e-17 0.0
-0.30922577824843556 0.06 0.0
0.6103276788742336 -0.06 0.0
0.593631917725493 -0.01946781888421301 0.0
0.6264545933043166 -0.021459100211208025 0.04
0.4889627886584896 -0.027603176797077415 0.020155725176282127
0.583287522480325 -0.023728770665855194 0.039999999999999994
0.5450807564691462 -0.01715484187473429 0.0
0.5409244119327052 -0.005150142234760652 0.04
-0.48912437490067595 -0.00041996788971368666 0.0
0.3619231620553172 -0.06 0.04
-0.657128141901218 0.06 0.0
0.9600374798207896 -0.027590413451835553 0.0
1.0 0.0 0.04
0.9589620457797374 -0.028177574718636023 0.04
0.5625923446839077 -0.06 0.04
0.5625923446839085 -0.06 0.0
0.7766984080639845 -0.02052537972713625 0.0
-0.438611990705585 -5.252150912499892e-05 0.0
-0.583287522480325 -0.023728770665855194 0.0
-0.9600486361512215 0.06 0.0
-0.95349853104827 0.02147987272312249 0.0
-0.9192992165657539 0.06 0.0
-0.9192992165657531 0.06 0.04
-1.0 0.06 0.0
-0.14473309882269625 -0.06 0.04
-0.14473309882269605 -0.06 0.0
-0.11621514710911887 -1.214306433183765e-16 0.0
-0.17269254160055947 1.1796119636642288e-16 0.0
-0.14473309882269625 0.06 0.0
-0.11621514710911884 1.214306433183765e-16 0.039999999999999994
-0.8353421249080566 -0.06 0.0
-0.8353421249080575 -0.06 0.04
-0.8973163514988121 0.02144006532192878 0.0
-0.897529295217204 0.022569895749215793 0.04
0.11621514710911887 -1.214306433183765e-16 0.039999999999999994
0.05860957814939871 -6.938893903907228e-17 0.0
0.05860957814939863 5.898059818321144e-17 0.039999999999999994
0.08769719539554144 0.06 0.04
0.6103276788742336 0.06 0.04
0.5139034646412424 -0.06 0.0
0.9096368506350345 -0.020963842829632554 0.04
0.805541091654972 0.020469431563422978 0.0
0.8052789150181434 -0.019306901564895652 0.04
0.8203038938742353 -0.020636147377884773 0.0
0.08769719539554144 -0.06 0.0
0.08769719539554167 -0.06 0.04
0.9192992165657531 -0.06 0.04
0.8164681441220105 0.022269284396602723 0.039999999999999994
-0.9103536180674616 -0.021283841161765512 0.04000000000000001
-0.8777357995360431 -0.06 0.0
-0.9096368506350345 -0.020963842829632554 0.0
0.8570647961856006 -0.015388027432140593 0.04
0.7921016077200956 -0.06 0.04
0.8353421249080566 -0.06 0.04
0.7921016077200962 -0.06 0.0
0.4135884955929341 0.06 0.04
0.43891524330526177 8.673617379884035e-17 0.0
-0.7921016077200956 -0.06 0.0
-0.08769719539554144 0.06 0.0
0.14473309882269605 0.06 0.0
0.1726925416005594 -1.214306433183765e-16 0.0
0.11621514710911884 1.214306433183765e-16 0.0
-0.029521960903255984 0.06 0.0
0.0 0.0 0.0
0.17269254160055947 1.1796119636642288e-16 0.04
0.14473309882269625 0.06 0.04
0.0 0.0 0.04
0.2006519843784229 0.06 0.04
0.22806385632140147 -1.1796119636642288e-16 0.04
0.22806385632140147 1.0755285551056204e-16 0.0
-0.6720046167250797 -0.020579604775701428 0.0
-0.7030120427199962 -0.06 0.04
-0.7030120427199952 -0.06 0.0
0.25547572826438003 0.06 0.04
0.30922577824843556 0.06 0.04
0.25547572826437986 0.06 0.0
-0.02952196090325599 0.06 0.04
0.2006519843784232 -0.06 0.04
0.14473309882269605 -0.06 0.04
0.2006519843784229 -0.06 0.0
0.14473309882269625 -0.06 0.0
0.2823507532564078 -5.204170427930421e-17 0.0
-0.36192316205531716 -0.06 0.04
-0.41358849559293387 -0.06 0.0
0.5372746904547943 0.02439300391790418 0.0
0.5139034646412424 0.06 0.04
-0.5139034646412424 -0.06 0.04
0.41358849559293387 0.06 0.0
-0.7171469290115033 0.021165332718839136 0.04
-0.7479973317145417 0.06 0.04
-0.7030120427199962 0.06 0.0
0.08769719539554167 0.06 0.0
0.029521960903255984 -0.06 0.0
-0.02952196090325599 -0.06 0.0
0.02952196090325599 -0.06 0.04
0.02952196090325599 0.06 0.0
0.029521960903255984 0.06 0.04
-0.47805793986482265 0.03008719549728311 0.01940109733029794
-0.4642419910175897 0.06 0.0
0.6103276788742331 -0.06 0.04
1.0 -0.06 0.04
0.9600486361512205 -0.06 0.04
0.9600486361512215 -0.06 0.0
-0.3092257782484355 -0.06 0.0
0.877735799536044 -0.06 0.0
0.8777357995360431 -0.06 0.04
-0.41358849559293387 0.06 0.04
-0.4135884955929341 0.06 0.0
1.0 -0.06 0.0
1.0 0.0 0.0
-0.14473309882269605 0.06 0.04
-1.0 -0.06 0.0
-0.9600486361512215 -0.06 0.04
-1.0 -0.06 0.04
-0.7921016077200962 0.06 0.0
-0.9192992165657531 -0.06 0.0
-0.9600486361512205 -0.06 0.0
-0.7921016077200956 0.06 0.04
-0.7766984080639845 -0.02052537972713625 0.04
-0.5625923446839085 -0.06 0.04
-0.5625923446839077 -0.06 0.0
-0.877735799536044 -0.06 0.04
0.7921016077200962 0.06 0.04
-0.3619231620553172 -0.06 0.0
-0.7479973317145423 0.06 0.0
-0.8777357995360431 0.06 0.04
-0.4135884955929341 -0.06 0.04
-0.46424199101758934 -0.06 0.0
0.513903464641242 -0.06 0.04
-1.0 0.0 0.04
-0.877735799536044 0.06 0.0
-0.30922577824843556 -0.06 0.04
[...]
POINT_DATA 584
VECTORS displacement double
0.014798139854891684 -0.02981627130835445 0.015579005488386902
0.041182651957960156 -0.018079300257213646 0.0032623253501103747
0.02810668878945369 -0.011754218852660616 0.007065692731987796
0.0379987304672819 0.013139255385087948 -0.0004363439136066787
0.002508362350535898 -0.029951515899203925 -0.014869270985246782
0.0015915261523196426 -0.02875023560741673 -0.013356881308287263
0.0017399701674477939 -0.03679859328625964 -0.026524017313027854
-0.0001724446428460914 -0.039693310768535446 -0.01486628490641612
0.0015107962410676687 -0.01205054505440991 -0.014021155701134283
0.005689409306472849 -0.008787301210522363 -0.026794353345542053
0.002566930075870771 -0.021613774273754653 -0.028265178073095948
0.004319022881017853 -0.021459416414191947 -0.02624157251692419
0.0011043087883230566 -0.023253156495740404 -0.003110320796304714
0.0008209049573526071 -0.017736471690438304 -0.002391563997770363
0.0029276706028371394 -0.03444253807653197 -0.0026440772726655003
0.0028720459989293574 -0.01613938881661851 -0.01445751153822414
-0.04489803475381751 0.010510145800919779 -0.014445900817118983
0.025351052328295105 0.0031071915501028843 -0.00984185922918304
-0.03083829227118905 -0.004638868749372057 -0.017513209116606913
-0.040330563171468145 0.005837409946040806 -0.01740638991449132
0.0028423487758421893 -0.013164375558836644 0.00998637698436604
0.0017363135721176612 -0.001936858655485175 0.008746065076993097
0.0016043467721303592 -0.02945561788862319 0.007683343265411777
0.0002705961353181673 0.009290389185752151 0.006611743427820482
0.004726491335002775 -0.0035788344298423435 -0.002499404081781733
0.0024060163460180406 0.006259462503544653 -0.0018685069100664003
0.006324474209821717 0.013422715200242616 -0.0032210281170268443
0.019263554430425454 -0.0015286388136485478 -0.007935638485368315
0.02116049596942065 -0.009404063032925127 -0.010742324015187169
0.02322623604290987 -0.03385412707427132 -0.0008554593831547873
0.021583094712204952 -0.007341137552351241 -0.006586899020835926
0.008176573415989253 -0.005782442451418685 0.007562779590753124
0.006422425355108516 -0.010945186935073474 -0.0003682141371722487
0.0041288697872617465 -0.01788590688235932 0.0017926770676120172
0.0032817109177158093 -0.012364293527890523 0.009552903499145789
0.007760436051323096 0.030220601348675293 0.012438866299612113
0.004910854470686851 0.01510248749302348 0.013198135634944758
0.00358758423808414 0.0031264464500821744 -0.0013554382004563935
0.00783934372820122 -0.015818779997353184 0.004826542075623711
0.011705887235604374 -0.01122750789493834 0.01261670317882812
0.009656535929059514 -0.0038801765753442045 0.013796122678188893
0.01438189298025714 -0.009221690743548337 0.007072913710468967
-0.009270604077016565 0.004412547199911086 0.010005742374904819
-0.00427718224618145 0.04425170034562446 0.014169831721229582
0.014700273057624587 0.009656545496085519 0.013106834977100162
0.002278295878885066 0.0013280245739096651 0.006385343732420368
0.0028554238223940944 0.011214963127710953 0.028532001836067244
0.006488470744406472 0.03174761775485942 0.03409716061231113
0.006908278108988351 0.04815787469849497 0.033362665255432224
0.0012673431767162735 0.00790527439241496 0.02067486108564479
0.0015526142346592763 0.008535845178706921 -0.022339945050247677
0.0042649262787818835 -0.004608574661351109 -0.01307917396359102
0.0026028764702683517 -7.560590629971497e-05 -0.02145106617305799
0.003946514307138854 0.0076074164856820585 -0.012819514697633915
0.001623394838360407 0.023306930906801564 -0.008468388289612092
0.02832616829404856 -0.014542330147912992 -0.01192874171907856
0.010756230249906061 -0.00039114063528016484 -0.009958646462432658
0.03672255404509867 -0.02061357052789273 -0.00864879383724834
0.006041177262331244 -0.004421728869570559 -0.011019982682519964
0.006279688631885671 0.02551991247775901 -0.00443204592893583
-0.004649579977496164 0.008079900090899005 -0.0201930479985689
0.00361987572998709 0.017328199574790495 -0.006198741420536677
0.002810281602079872 0.0007074796863187122 0.006874403902259871
1.563476599964258e-05 -0.0075695037173544736 0.0028819007182644104
-0.00015135874649124388 -0.004796222542675291 0.0027352034223027265
-0.0015179260216142715 0.010210959258879809 0.004262806385468869
-0.0005697871217859606 0.014737078592421578 0.0014491253879864803
-0.0025771897690726716 0.00937351909395797 -0.007446580071790093
0.0011523108753791925 0.013736186804613153 0.0011946075384026496
-0.0067215960794965975 0.011233099903762298 0.0036208619683051075
0.0006452408585672072 0.00838821527196187 0.003997546814613493
0.019833362172730528 -0.0147657977903765 -0.006754599140217903
0.001362635343700106 0.016394329648501235 0.0027320543159223038
-0.0025451038401010863 0.012697307725068961 0.0023443210224228907
-0.05866550674590243 -0.02092772751531622 -0.0003488342253244207
0.005071814329579933 -0.010766462743252792 -0.0013053334738669213
0.004215943415672197 -0.014819598564656295 0.006320840963936271
0.001949210106196635 0.00021770820721083621 -0.01769917180641521
0.0012892863950321747 -0.037368398790360524 -0.02303927959510676
-0.0010414744148282452 -0.01951770382829032 -0.011210765336305493
-0.0009063430286017908 -0.020835737182053032 -0.009985501543766834
0.005129499063014381 0.0035597934193575425 0.0010468098870638274
-0.035848341394277346 0.006432786410676685 -0.016033432919581484
0.01274422694190773 0.014893968968386349 -0.0028701618883871126
0.01264930070106915 0.024052855114392452 -0.0018836226582529504
-0.025491232420599273 0.019653771629761493 -0.011734313777075985
-0.01480638515952604 0.02077682870320987 0.010699829099377849
0.012504541012619278 0.03075365267118832 0.01282023030700768
0.018094659822099568 0.02105753457954039 0.0012102783906362223
0.009485356892909937 0.015724279431903677 0.009878127477555452
0.010463251897169778 -0.0012427997118599238 0.013630974860622154
-0.011433345501952746 -0.029009075286892803 0.021582601068177977
-0.019121046568663643 0.008021913696997042 0.017475326608957904
-0.006068280429055205 -0.01390761637920457 0.013391063166743431
0.01295178086933539 0.017950217639317787 -0.008793005686546923
0.015737401377732736 0.029997829763206266 -0.008149135620592525
0.007746297025430599 0.028602907320056818 0.0020703822545481343
0.018174564652186403 0.006225161700020237 -0.0008563042715257278
0.012569025735278369 0.018246577632796482 0.001588198418528942
-0.046591461275343915 -0.03827815696694883 0.01206671209137894
0.0037228766341627843 0.009652275951181254 0.007775304170078701
-0.060966797324502754 0.024057991934736504 0.014611007344140321
0.0005227047209730185 0.024013464991903096 0.0002961014548367823
-0.0019357886233191408 -0.030005569320787854 -0.005226208255204855
0.005106759095196411 -0.0313919852167447 -0.015409708466131307
0.008264894086612427 -0.03719799341342044 -0.01229234994432848
-0.006588073713592234 -0.030890331379709434 -0.0032223414804281743
-0.00731637139593768 -0.024199186751726182 -0.0036553829507883807
0.007080503917183091 -0.04913492883043878 0.003153930658996436
-0.018909057456994987 0.0016536480602902376 -0.01633832417696725
-0.017496756804645696 -0.013804895988831674 -0.010603860237263221
0.00337877708565882 -0.015355401284312897 0.008251327515673479
0.0013685020754730457 0.0010040280848496496 0.010794281866746006
0.0010662321441003671 -0.022123970777053276 0.02068148551157965
-0.0012482960417279588 -0.013878811129540813 0.020755015065102793
-0.010237452187395926 0.00781205740506534 0.00232185538914514
0.00870560147031151 -0.01057130944465163 0.00967277228256731
0.007177739924305682 0.00021001863961874175 0.008556148025690493
0.005896934449884902 0.009680663180361437 0.010511539153048406
-0.014050414983450355 0.015557981654252857 0.0022117499080083433
-0.00639287961135286 -0.03939701994597495 -0.004319865635996763
0.0036020934476633532 0.034580844260088915 0.011407291777166446
-0.010926609712618652 0.024734915999375752 -0.0031812162905193284
0.0029240678169213043 -0.008460289066358406 0.010861233129778203
-0.011544530576010594 0.016145551619910416 -0.002556317159097237
-0.00601912614575835 -0.007329676266263804 -0.002083119098282456
0.0037503206373214314 -0.022024135024633726 0.00933801079558782
0.003311069232081009 0.02685100671158914 0.026846900742139267
0.0068139024075075565 0.013273699627844292 0.011025905044879493
0.004493603883532117 -0.053125983274203536 0.0026130041062735715
-0.0014776940748979263 -0.0422538760328137 -0.002467253573719462
0.0028811836482306374 -0.02902581062167765 0.009537169176761673
-0.00021280989249474518 -0.03081452235079601 -0.0013327593693421302
0.0019258563844836646 -0.0166183740198497 -0.0008832602940922235
-0.0010371904889606121 0.016679409327442697 0.0033741632798764236
0.001288111455605349 -0.01938679879135305 0.0007287122516638355
0.002854451055144217 0.0014837614827706723 0.0005853207117636869
0.0028840040701040483 0.01058025296894012 -0.0016402765675237096
0.010713485870699011 0.0019167285724963857 0.010297575435809156
-0.006044347900258869 -0.014486301502632632 -0.0019701310082452547
-0.04308657261497845 -0.009405376611611322 0.01648305308223546
0.0020977402807193625 0.032887387489931724 -0.004455425804457992
0.0021355949943077145 0.02836373275908485 0.007388929643698378
-0.0002172012992178694 0.017857371635219915 -0.004141680337935467
-0.003790368972076314 -0.005951800878312353 0.00755817625930512
-0.0039756888490836495 -0.012197378037223799 0.00796883268027288
0.004879987605951569 0.0045185228885390285 -0.00031851458240045874
0.015528722246553724 0.00926499963727521 0.012359805226187329
0.00631346979638103 0.012288286698089275 -0.0007077544655635212
-0.09415601986439735 0.02646725969567712 -0.011235935845478868
0.020596160017278452 0.0005746271032699399 -0.006162458070732578
-0.08090841957218739 -0.03132928674597255 -0.00723055764639006
-0.10367402737045854 -0.03877334187791927 -0.02859345876510227
-0.06718407502506388 -0.12737115305981114 -0.008513053216523719
-0.0014379278685273708 0.00013474998954548332 0.00013751442975603798
-0.0016368022109953964 -0.006728695291629846 -0.0007583247912344357
0.008638462950902297 -0.009895619418336509 -0.013497687245431204
0.005125016246505994 -0.010768254362986325 -0.011145804466616257
-0.009024052782407902 -0.01525052366751895 -0.025656291015745267
0.008737743695673693 0.001123469125370986 -0.014807053099592753
-0.06327681488334716 -0.004906992034806773 -0.010852212320629646
-0.060137435550464885 -0.005733770698793855 -0.013473987640058131
0.03300884204903836 -0.00752458579265745 -0.01335899913987013
0.04340857004076003 -0.00907383438512919 -0.01363076800495875
0.004766322938023824 -0.019911846238596622 -0.0006101086595791335
0.005444471635551231 0.032905656869455235 -0.006373257519982187
0.0038477338780266933 0.03346029792682851 -0.006511244212733108
0.003471087168480819 -0.004959827872077658 0.0012896897048292153
0.004297327328783765 -0.026883269462448813 -0.02664252524520431
-0.0035981719528628783 0.017029937210841405 0.005240101693175455
-0.00044379204737057847 -0.006431868279792259 -0.0018640651370305248
0.007137396092280755 0.004610580875135668 -0.005604593241621112
-0.0034353751580952353 0.010701686247208061 -0.0030193617125214497
-0.0008501218549772391 0.003074687637628438 -0.0001342493560563167
-0.013395185833599084 0.005313548225861809 -0.009541502025696428
-0.01283439330937244 -0.0011436900019203078 -0.008703202127197334
-0.003823344871603338 -0.0057750552471761635 -0.011796801714277716
0.00675712510080991 0.0028535231481500536 -0.004512400024611546
0.044938604634744674 0.006848048000743975 -0.008813435165931085
-0.07520748040393117 -0.028055671087412786 -0.004787054558354473
0.03582884351845656 0.002354454019597485 -0.008989605192365628
0.0027011355351643906 -0.011720922618990503 0.0005532731691335865
-0.0021878616351948066 -0.0069443564608348655 0.003676891833122772
-0.005311017992089299 0.005980373077650628 0.0016844900117616642
-0.0034904278620637077 -0.0044531764247920545 0.0018967642924452108
-0.002494783141948242 -0.00791209123042826 0.0131807663805563
0.0024941381499354017 0.002339239347682132 0.00550731004675266
-0.051939605872130035 0.007033720312193235 -0.012966104588735379
-0.0012012398425286183 -0.020597914172324257 -0.024891555552985233
0.002846990611987841 -0.014280712976929736 0.012669707686005562
0.00570312197666356 -0.006303488958516016 0.005068619545066658
0.006696006212725127 -0.014326548457047356 -0.0006733717241399586
-0.00933528947247803 -0.021641994335369626 -0.019337361810748077
0.00438445607532994 0.008743885864546651 -0.009525167295485084
0.004105152841265267 -0.013308234440251913 0.004983890336180497
8.518881547614601e-05 -0.022396249989434194 0.012628691986135242
0.00512305646898822 0.016207939995979956 -0.012350080555693404
-0.0014764643506510703 -0.0018037148909113402 0.024497765426049378
0.00480371503520553 0.016890985000282195 0.009215922834683189
0.005375576918766895 0.0289005093059403 0.010043536906024088
0.0178067838300362 0.030700531864473878 -0.008514245705107863
-0.03267066380226934 0.02865206039604213 -0.01621980357105216
-0.03589489377868576 0.03699688265601828 -0.015919782519649872
-7.116031085979784e-05 0.033839684546139594 0.028569292787957362
0.004901482104701697 0.01833427359112262 0.026259230776600792
-0.002220899426527489 0.04479370662996328 0.027946082738861972
-0.008812678839764772 -0.025399674321220617 -0.014970041173782448
-0.004531478644057203 -0.0011887326890548603 -0.008516564651712607
-0.00632592030890249 -0.025117367316875073 -0.009078585070437272
-0.0031091976254012297 0.009955889326580026 -0.006942179655858601
-0.006416660780004699 -0.016085230665925442 -0.007926580000776137
0.0030627550378434752 0.04507628763263346 0.01181654906259369
-0.007009607504253475 0.02162891283632742 0.019511432173513234
-0.005251419380625056 -0.009171899309741296 0.016681851093428873
-0.001533268264238568 0.004878409539833108 -0.006247377897782687
-0.00035078150980160223 0.014727759815394648 -0.007376284187263125
-0.01669486500050662 -0.029489203955760084 -0.002769586206645959
-0.005682901559550514 -0.0047206076006774565 0.013048674947996223
0.006528825351028661 0.007052979339008091 0.003852718821059562
-0.0518927353548331 0.028372326200995116 0.010701846907692521
-0.058951563830725494 0.032410732629080716 0.014937465555819535
0.00838797506315645 0.0017453684832353092 0.0021467713493700216
-0.004228233395845837 0.03515450254929058 -0.006751051327152823
-0.0008602068208786119 -0.03152086622420808 -0.004137615481249105
-0.005977387968652747 0.03649499667045639 -0.005631281626528452
-0.0043966499153043495 0.035917766928569274 -0.010019742819938072
-0.00540227765136108 0.03932872470507173 -0.011905893785580518
0.0009346571962295601 0.002075324023647998 0.013698291128042944
-0.009562476532085185 0.004622988471403965 0.01327534479494619
0.004340372472474232 -0.017208687723350498 0.01040720809792342
-0.004470371445871853 0.02032135150686363 -0.018823888041353282
-0.004153929209777778 0.02018661370179327 -0.015221997474114762
-0.005930628416600723 0.03344621926771977 -0.016105520954069148
-0.018714221028355 -0.048613344603775976 0.01643728820346828
-0.005452745000908439 -0.015904529297665844 -0.0067845306860535555
-0.0022828805426470234 -0.02544891621547212 -0.0069187956996783736
-0.013931859208064992 0.014638471982274161 0.009554039576081873
-0.009616185408076277 0.013230379150885095 0.00871866118878373
-0.004974650773414164 0.03797234413596684 -0.01757731580165951
0.0051070049278062486 0.04451708931207941 0.00799733353481828
-0.008520095517056401 -0.009328556406529487 -0.025144967466307372
-0.039095063358244135 0.11172779463096659 0.03733409221616113
-0.07580203192166525 -0.09805415516273659 -0.017488177344614646
-0.05551733781735772 0.1800183251390681 0.02528192765382524
-0.06420004473411764 -0.012304965998337962 0.010120483257481418
-0.08657258596138466 0.024701877834568797 -0.003217746442950571
-0.06431036314363404 -0.036161376186168014 0.016732854511530677
-0.05799553720430905 -0.021971987282986088 0.006614652712326476
0.029942415660111552 -0.018321351298260614 -0.005480139103238207
-0.028541796288441768 0.0028109542137301677 -0.004334476411836354
-0.020208672737659476 0.006503133400010332 -0.003971301564539314
-0.06826281281271845 -0.030354567834365763 -0.003067411524026633
0.011654053176793943 0.0032736113510121027 -0.012795455990971125
-0.01159480976585987 0.014061004992720377 0.018395719433924658
-0.059264301513125256 0.0341138164890975 0.011705549901252013
-0.07531852958178084 0.020062122158798545 -0.01879725493702525
-0.004607014066902173 -0.011469580245935864 0.013306929868714752
-0.0083463804137389 0.0330577009572373 0.012493391936531385
-0.0012796230653079532 0.02276342477613572 0.00662362231752447
0.048512244850617496 -0.048621420680926335 0.072002651390617
-0.07484365595126213 0.01049637337415996 -0.012236234273819598
-0.011349424730591648 -0.04720546131405568 0.01848303223926073
0.00039908366895277425 -0.003104336818072503 0.011793796072199363
-0.0004341738155325557 -0.012774811830977778 -0.024687409889338558
-0.0027830613317052846 0.03944985163209458 -0.004092484878300054
-0.00439267969869434 -0.011569616844655841 0.00809313901741462
-0.08135732475855717 0.11958381635693567 -0.033253311628264934
-0.1061496949843325 0.05357226912470847 -0.009227360479253141
-0.0064972018646674515 0.001642003233496066 0.015720374267771647
0.019311516101920594 0.022924264247672688 -0.0038076103641375867
0.004322442541490351 0.029292880686976507 0.02894627260859717
-0.025463128276344612 -0.12499938181867257 -0.01734474365803738
-0.009072847030974432 0.0018590993582436083 0.015257257283341477
-0.012355533472975399 0.004797864576397774 0.013798190552148157
-0.03110319008890741 0.024347723466175697 -0.019554354569767663
0.0009817558951208413 -0.016141488373666565 0.008893829594554427
-0.002823456182574485 -0.0024238950004310113 0.017739218588260487
-0.005955660359132124 0.02836480643369782 -0.006371917179299756
-0.005563435128363685 0.005483966172373112 -0.00023931521308119506
-0.01428790093934449 -0.015739325380389933 0.004271683687632066
-0.005497927115115386 0.01979626495813609 -0.02275878452177057
-0.06540630641614391 -0.009390246454983039 0.0011187912904753287
0.014002593247952957 0.0026371148581310812 0.0017345329607047564
0.012427608127029406 0.007750837251979175 -0.002858604462374805
0.013056334942600344 0.0026605732383951394 -0.01044009321026094
-0.0056785109416876865 0.007419822746464701 -0.012849926409646365
0.0020477248606483867 -0.009019643621539005 -0.017060927284692655
-0.03173874934082918 0.005718501090066724 -0.01744593590990151
0.0022531785401456207 -0.03765054935000893 0.008914750020368642
-0.01327035806493336 0.022285783430100094 0.0021481234378738045
-0.01111348465138161 0.011970579403633915 0.003248802310633987
-0.0002726103648774494 0.009109965666619433 0.02242451104537255
-0.05664497308262783 0.0012509028536171244 0.012809739291969165
0.060368920662301845 -0.08425097965834924 0.02585971324671604
-0.02291600265015035 -0.1245491546987784 0.011905606390545526
-0.005008530908756746 -0.012643172693941645 -0.003293137851336701
0.003639503055075427 -0.026756098792057346 -0.0012845485174813294
0.02473008909186103 -0.0461549806979481 -0.0020442625115080115
0.017173141009091484 0.012529971055468485 -0.0011016341520852717
0.003298692925818831 0.004587620059536385 0.012773950878122857
-0.011395285711494407 0.015411849007275644 0.006109569191769474
0.011382991224262656 0.04022408220986393 -0.0046602851585856465
0.007187924541463244 -0.02014786752596624 0.007650520460174864
0.004614902669767591 0.001376495861319355 1.2304821758464543e-07
0.004701124540070536 0.006663364407524225 0.00600906739392273
0.047845186392100475 0.01926752972269275 0.014143784104737952
0.06496510769821616 0.1512269573043214 -0.0025144395530757014
0.12484754092572976 -0.044922777637180916 -0.013521784252807511
-0.060353487216470166 0.0015732358959256547 -0.0003023129776486375
0.0050216619894146025 -0.039187078661666715 0.0058135344337201245