# vtk DataFile Version 2.0
Really cool data
ASCII
DATASET UNSTRUCTURED_GRID
POINTS 584 double
-1.0 0.0 0.0
-0.9600374798207896 -0.027590413451835553 0.04
-0.9589620457797374 -0.028177574718636023 0.0
-0.9553815213922792 0.019675326217199102 0.04
0.6719637381218919 0.02110482676547816 0.0
0.6414775595248179 0.020020515529780993 0.04
0.6571281419012174 0.06 0.0
0.6240641012293764 0.022292119262118645 0.0
0.687851041884645 0.021313940245698455 0.04
0.7030120427199962 0.06 0.04
0.657128141901218 0.06 0.04
0.7030120427199952 0.06 0.0
0.6885310613992013 -0.0196061899732657 0.0
0.6720046167250797 -0.020579604775701428 0.04
0.6407079554435648 -0.019738458112036637 0.0
0.7171469290115033 0.021165332718839136 0.0
-0.7921016077200962 -0.06 0.04
-0.7604373514312079 -0.019298436119384588 0.0
-0.7479973317145423 -0.06 0.04
-0.7479973317145417 -0.06 0.0
0.7030120427199962 -0.06 0.0
0.7030120427199952 -0.06 0.04
0.6571281419012174 -0.06 0.04
0.7479973317145417 -0.06 0.04
0.7325903506195701 -0.020274227246539274 0.0
0.7176321617908783 -0.019839353713154383 0.04
0.7604373514312079 -0.019298436119384588 0.04
-0.8488906624897727 0.019856366527450334 0.04000000000000001
-0.8052789150181434 -0.019306901564895652 0.0
-0.805541091654972 0.020469431563422978 0.04000000000000001
-0.8203038938742353 -0.020636147377884773 0.04
0.897529295217204 0.022569895749215793 0.0
0.8488906624897727 0.019856366527450334 0.0
0.8569454102823642 0.029774901726562965 0.04
0.8777357995360431 0.06 0.0
0.9553815213922792 0.019675326217199102 0.0
0.95349853104827 0.02147987272312249 0.04
0.9103536180674616 -0.021283841161765512 0.0
-0.5450807564691462 -0.01715484187473429 0.04000000000000001
-0.5372746904547943 0.02439300391790418 0.04
-0.49049502097572617 0.000359712426279548 0.04000000000000001
-0.5409244119327052 -0.005150142234760652 0.0
-0.48901428549955095 -0.02776609156780287 0.019771763033692314
-0.4642419910175897 -0.06 0.04
-0.43891524330526177 8.673617379884035e-17 0.04000000000000001
0.7479973317145423 -0.06 0.0
0.9600486361512215 0.06 0.04
1.0 0.06 0.04
1.0 0.06 0.0
0.9192992165657531 0.06 0.0
0.7479973317145423 0.06 0.04
0.7309057796957548 0.02177174945441851 0.039999999999999994
0.7479973317145417 0.06 0.0
0.7613659684934695 0.020945326906433456 0.0
0.7736855084518748 0.020914979208800512 0.04
-0.8570647961856006 -0.015388027432140593 0.0
-0.8569454102823642 0.029774901726562965 0.0
-0.8649535140731797 -0.02016838668923704 0.039999999999999994
-0.1726925416005594 -1.214306433183765e-16 0.039999999999999994
-0.22806385632140147 1.0755285551056204e-16 0.039999999999999994
-0.2006519843784229 0.06 0.0
-0.22806385632140147 -1.1796119636642288e-16 0.0
0.438611990705585 -5.252150912499892e-05 0.04
0.41358849559293387 -0.06 0.04
0.4135884955929341 -0.06 0.0
0.4642419910175897 -0.06 0.0
0.4782715374234063 0.0302584611690398 0.019894876072988572
0.513903464641242 0.06 0.0
0.49049502097572617 0.000359712426279548 0.0
0.46424199101758934 0.06 0.0
0.46424199101758934 -0.06 0.04
-0.8164681441220105 0.022269284396602723 0.0
0.48912437490067595 -0.00041996788971368666 0.04
0.4642419910175897 0.06 0.04
-0.8353421249080566 0.06 0.04
0.8649535140731797 -0.02016838668923704 0.0
0.8973163514988121 0.02144006532192878 0.04
0.5625923446839085 0.06 0.04
0.6103276788742331 0.06 0.0
0.5943416245309461 0.018901239582525348 0.04
0.5790918012159274 0.021628695864523574 0.0
-0.593631917725493 -0.01946781888421301 0.04
-0.6103276788742336 -0.06 0.04
-0.6407079554435648 -0.019738458112036637 0.039999999999999994
-0.6264545933043166 -0.021459100211208025 0.0
-0.6103276788742331 -0.06 0.0
-0.6103276788742336 0.06 0.0
-0.6240641012293764 0.022292119262118645 0.04
-0.6414775595248179 0.020020515529780993 0.0
-0.5943416245309461 0.018901239582525348 0.0
-0.5790918012159274 0.021628695864523574 0.04000000000000001
-0.5625923446839077 0.06 0.04
-0.6103276788742331 0.06 0.04
-0.5625923446839085 0.06 0.0
-0.7325903506195701 -0.020274227246539274 0.039999999999999994
-0.7176321617908783 -0.019839353713154383 0.0
-0.7309057796957548 0.02177174945441851 0.0
-0.7736855084518748 0.020914979208800512 0.0
-0.7613659684934695 0.020945326906433456 0.04
-0.6571281419012174 0.06 0.04
-0.6719637381218919 0.02110482676547816 0.039999999999999994
-0.7030120427199952 0.06 0.04
-0.687851041884645 0.021313940245698455 0.0
-0.029521960903255984 -0.06 0.04
-0.05860957814939871 -6.938893903907228e-17 0.039999999999999994
-0.05860957814939863 5.898059818321144e-17 0.0
-0.08769719539554167 -0.06 0.0
-0.08769719539554144 -0.06 0.04
-0.2823507532564078 -5.204170427930421e-17 0.04
-0.25547572826437986 0.06 0.04
-0.25547572826438003 0.06 0.0
0.38751191920162714 6.938893903907228e-18 0.0
0.3352618020299945 -3.469446951953614e-18 0.0
0.36192316205531716 0.06 0.04
0.3619231620553172 0.06 0.0
-0.36192316205531716 0.06 0.0
-0.335244821032008 -1.1796296425746478e-06 0.0
-0.3352618020299945 -3.469446951953614e-18 0.039999999999999994
-0.38745316199969926 -7.894682722445895e-06 0.0
-0.3619231620553172 0.06 0.04
-0.3092257782484355 0.06 0.04
0.28235075325640757 5.551115123125783e-17 0.039999999999999994
0.30922577824843556 -0.06 0.0
0.335244821032008 -1.1796296425746478e-06 0.04
0.3092257782484355 -0.06 0.04
0.36192316205531716 -0.06 0.0
0.38745316199969926 -7.894682722445895e-06 0.04
0.3092257782484355 0.06 0.0
-0.38751191920162714 6.938893903907228e-18 0.04
-0.28235075325640757 5.551115123125783e-17 0.0
-0.30922577824843556 0.06 0.0
0.6103276788742336 -0.06 0.0
0.593631917725493 -0.01946781888421301 0.0
0.6264545933043166 -0.021459100211208025 0.04
0.4889627886584896 -0.027603176797077415 0.020155725176282127
0.583287522480325 -0.023728770665855194 0.039999999999999994
0.5450807564691462 -0.01715484187473429 0.0
0.5409244119327052 -0.005150142234760652 0.04
-0.48912437490067595 -0.00041996788971368666 0.0
0.3619231620553172 -0.06 0.04
-0.657128141901218 0.06 0.0
0.9600374798207896 -0.027590413451835553 0.0
1.0 0.0 0.04
0.9589620457797374 -0.028177574718636023 0.04
0.5625923446839077 -0.06 0.04
0.5625923446839085 -0.06 0.0
0.7766984080639845 -0.02052537972713625 0.0
-0.438611990705585 -5.252150912499892e-05 0.0
-0.583287522480325 -0.023728770665855194 0.0
-0.9600486361512215 0.06 0.0
-0.95349853104827 0.02147987272312249 0.0
-0.9192992165657539 0.06 0.0
-0.9192992165657531 0.06 0.04
-1.0 0.06 0.0
-0.14473309882269625 -0.06 0.04
-0.14473309882269605 -0.06 0.0
-0.11621514710911887 -1.214306433183765e-16 0.0
-0.17269254160055947 1.1796119636642288e-16 0.0
-0.14473309882269625 0.06 0.0
-0.11621514710911884 1.214306433183765e-16 0.039999999999999994
-0.8353421249080566 -0.06 0.0
-0.8353421249080575 -0.06 0.04
-0.8973163514988121 0.02144006532192878 0.0
-0.897529295217204 0.022569895749215793 0.04
0.11621514710911887 -1.214306433183765e-16 0.039999999999999994
0.05860957814939871 -6.938893903907228e-17 0.0
0.05860957814939863 5.898059818321144e-17 0.039999999999999994
0.08769719539554144 0.06 0.04
0.6103276788742336 0.06 0.04
0.5139034646412424 -0.06 0.0
0.9096368506350345 -0.020963842829632554 0.04
0.805541091654972 0.020469431563422978 0.0
0.8052789150181434 -0.019306901564895652 0.04
0.8203038938742353 -0.020636147377884773 0.0
0.08769719539554144 -0.06 0.0
0.08769719539554167 -0.06 0.04
0.9192992165657531 -0.06 0.04
0.8164681441220105 0.022269284396602723 0.039999999999999994
-0.9103536180674616 -0.021283841161765512 0.04000000000000001
-0.8777357995360431 -0.06 0.0
-0.9096368506350345 -0.020963842829632554 0.0
0.8570647961856006 -0.015388027432140593 0.04
0.7921016077200956 -0.06 0.04
0.8353421249080566 -0.06 0.04
0.7921016077200962 -0.06 0.0
0.4135884955929341 0.06 0.04
0.43891524330526177 8.673617379884035e-17 0.0
-0.7921016077200956 -0.06 0.0
-0.08769719539554144 0.06 0.0
0.14473309882269605 0.06 0.0
0.1726925416005594 -1.214306433183765e-16 0.0
0.11621514710911884 1.214306433183765e-16 0.0
-0.029521960903255984 0.06 0.0
0.0 0.0 0.0
0.17269254160055947 1.1796119636642288e-16 0.04
0.14473309882269625 0.06 0.04
0.0 0.0 0.04
0.2006519843784229 0.06 0.04
0.22806385632140147 -1.1796119636642288e-16 0.04
0.22806385632140147 1.0755285551056204e-16 0.0
-0.6720046167250797 -0.020579604775701428 0.0
-0.7030120427199962 -0.06 0.04
-0.7030120427199952 -0.06 0.0
0.25547572826438003 0.06 0.04
0.30922577824843556 0.06 0.04
0.25547572826437986 0.06 0.0
-0.02952196090325599 0.06 0.04
0.2006519843784232 -0.06 0.04
0.14473309882269605 -0.06 0.04
0.2006519843784229 -0.06 0.0
0.14473309882269625 -0.06 0.0
0.2823507532564078 -5.204170427930421e-17 0.0
-0.36192316205531716 -0.06 0.04
-0.41358849559293387 -0.06 0.0
0.5372746904547943 0.02439300391790418 0.0
0.5139034646412424 0.06 0.04
-0.5139034646412424 -0.06 0.04
0.41358849559293387 0.06 0.0
-0.7171469290115033 0.021165332718839136 0.04
-0.7479973317145417 0.06 0.04
-0.7030120427199962 0.06 0.0
0.08769719539554167 0.06 0.0
0.029521960903255984 -0.06 0.0
-0.02952196090325599 -0.06 0.0
0.02952196090325599 -0.06 0.04
0.02952196090325599 0.06 0.0
0.029521960903255984 0.06 0.04
-0.47805793986482265 0.03008719549728311 0.01940109733029794
-0.4642419910175897 0.06 0.0
0.6103276788742331 -0.06 0.04
1.0 -0.06 0.04
0.9600486361512205 -0.06 0.04
0.9600486361512215 -0.06 0.0
-0.3092257782484355 -0.06 0.0
0.877735799536044 -0.06 0.0
0.8777357995360431 -0.06 0.04
-0.41358849559293387 0.06 0.04
-0.4135884955929341 0.06 0.0
1.0 -0.06 0.0
1.0 0.0 0.0
-0.14473309882269605 0.06 0.04
-1.0 -0.06 0.0
-0.9600486361512215 -0.06 0.04
-1.0 -0.06 0.04
-0.7921016077200962 0.06 0.0
-0.9192992165657531 -0.06 0.0
-0.9600486361512205 -0.06 0.0
-0.7921016077200956 0.06 0.04
-0.7766984080639845 -0.02052537972713625 0.04
-0.5625923446839085 -0.06 0.04
-0.5625923446839077 -0.06 0.0
-0.877735799536044 -0.06 0.04
0.7921016077200962 0.06 0.04
-0.3619231620553172 -0.06 0.0
-0.7479973317145423 0.06 0.0
-0.8777357995360431 0.06 0.04
-0.4135884955929341 -0.06 0.04
-0.46424199101758934 -0.06 0.0
0.513903464641242 -0.06 0.04
-1.0 0.0 0.04
-0.877735799536044 0.06 0.0
-0.30922577824843556 -0.06 0.04
[...]
POINT_DATA 584
VECTORS displacement double
-0.026955561630697865 0.009597389176470622 0.01241354823708596
0.019175220337901363 0.011907787481035676 0.0032832044995716163
0.008219303726960893 0.006000605004922604 -0.005009306664757917
-0.021626901618354826 -0.01320320277004055 -0.000887745938713126
0.03960658008017116 0.006377363815262431 -0.02221959365625582
0.021118973334296253 0.0012319965528745527 -0.03495966116707427
0.024165590985969092 -0.00134403792650773 -0.032722317359396104
0.02855286574140171 -0.004363984246568748 -0.032019565068409424
0.021967887815954868 0.0019248326721889738 -0.008128501292628624
0.0019858883218676544 0.022248937200338877 0.016633856592899326
0.017772248862520823 -0.010273796215798775 -0.033718891787597946
0.0194571654041183 0.029940494302440463 0.024087018073477674
0.026096917976609818 0.002430350137555511 -0.010229471461526333
0.00474610954827648 0.0012093167821660123 -0.03058297410964251
0.010216350897926572 0.010391981817019088 -0.043693293053675114
0.031614344689149254 0.015296546638855815 0.03437350311122988
0.018001154708860902 0.011592621449511472 -0.003155375124799833
-0.018250302440408407 0.012603601507068372 0.020209490306834138
0.02106010327827962 0.007795937860535808 0.0063823215435425
0.015863653450369643 0.013534494331681286 0.017633102813821737
-0.008818672415746676 -0.009701122652706399 -0.006400314219254208
-0.021159503761066713 -0.01127723612987233 -0.0007518972320322587
-0.030605359085496373 0.018047287094508657 -0.04584604917754093
-0.010022664329371598 -0.010387836071508548 0.027096293577544756
0.023154224697768216 -0.003482978405825736 0.03433023255368932
0.008664252300255505 -0.019930990890892165 0.011071005855236488
0.01778063719141672 -0.0065911310474001915 0.03519746728373095
-0.044831553768119134 -0.0016560994331558162 -0.017753085420091866
-0.02501043128675496 0.01922241327789888 0.0026809920407400954
-0.03848122601370574 0.006973138964885413 0.003056415972562682
-0.02300082550107488 0.016416469493712702 -0.005339110359753142
0.015476746180274711 0.006169747718712057 -0.048290418260308596
0.025006888553883635 0.0008257181021322998 -0.02146961536459018
0.005045858578115716 0.014184720696695031 -0.0208911506194402
-0.015769506193827804 0.008133188953325305 -0.04323816746487483
0.013166936264604799 0.010014353890258426 -0.000167491748805975
-0.01107784002784203 0.01203012729270519 -0.004986790538396804
0.0481649686152867 -0.001586465701157671 -0.04345144803420366
-0.0217731300746197 0.01168629966492783 -0.009786391743332203
0.016622245616536455 -5.255075489338196e-05 -0.004319993681677835
0.005831217626804031 0.010731440136564083 0.027471721727158702
-0.002838722969893553 0.008078801397811123 -0.00669840695969244
0.0014237917443719133 0.010277134832622164 0.03230825033164553
-0.019229477175021516 -0.013509081828718664 0.028707857327289196
0.011716196850617356 0.007776299540788386 0.02171818813972377
-0.0025592570553238047 0.009335854590836712 0.0211467735631716
-0.04087980471432173 0.001943948285810475 0.005692787011542103
-0.03661263793111082 0.0006502802069250372 0.040802042048873284
-0.01506009487821873 0.012473775978729408 0.05010336424173301
-0.023602275076692446 0.010065985199286202 -0.03203011587543572
-0.007994673154950968 0.015339473330453204 0.054209816677700494
0.014069163776365648 -0.0016183979712156358 0.032879586889256227
0.0013370542895155628 0.034084562757306175 0.07305507939616701
0.018218853109764715 0.014993971224392326 0.05935127274282908
0.014167060045002169 0.002117718245000493 0.04697270338730945
-0.022242142519447065 -0.019460343182343822 -0.012488181265409036
-0.050193601273620506 0.005074746218744177 -0.01602185742065976
-0.013635773515533934 -0.010653073629659894 -0.01920142117620961
0.0018812899219495087 0.005123657838588692 0.030602342219368174
-0.00514796043858068 -0.004222610364110232 0.02223190476624372
-0.01990675066860378 -0.010721874088049204 0.021096842187951454
-0.0037879211057514984 -0.01330824977059044 0.02746206581241939
0.0003796051533302043 0.009669918745505414 -0.02896115568861135
-0.035198929626440154 -0.006623457221939501 -0.02445148002379042
-0.03278240818658985 -0.023864052527420555 -0.013922089776757074
-0.03799931665303908 -0.02930065627361817 0.026153107746038524
0.012949721401394663 0.013518673130115249 0.015582594641050343
0.022304996951451526 -0.0036992222484814674 0.034653791639486516
-0.004965232210512364 0.0009102330738080653 0.031293518690952024
0.02031760698646452 0.015552173744210243 0.001940500748395104
-0.04083533543527562 -0.021119803862979653 0.011254505220708519
-0.04745055835839102 0.007248405090901935 -0.006150430527440582
-0.000597452171191598 0.007313919556809238 0.020953351660112793
0.024667172191430588 0.020308278234031522 -0.00020038291054410285
-0.01679510040887747 -0.005367141077429178 -0.010237290582768338
0.05001542919756125 0.00747483210918451 -0.036308441328890065
0.0022630438730475992 0.0029471425358163056 -0.037364749897113775
0.0348710845914283 -0.021517040248464077 0.020607974985586634
0.022320388768683426 -0.01832683749857906 -0.03167494214459991
0.02716920224233054 -0.013550621446618522 -0.0007154152560740261
0.01839147507323895 -0.01563031243209046 0.00496021677823714
-0.022689905031358638 0.006019654242745361 -0.022467037289828164
-0.020229512947639576 -0.0027588310790199033 -0.008204308477775486
-0.01724094893574902 -0.008605841009139921 -0.005010526157525417
-0.025201782787219483 -0.022249684219450536 -0.013456829239189302
-0.02581964391213539 -0.012867473936412655 -0.01503734897209726
0.0479550261922441 -0.015170032234984502 -0.05271658089436427
0.011415713830589725 0.002425609887794074 -0.028181706037401676
0.004414577301308596 -0.016273343517035615 -0.014921689310199132
0.008239046128664688 -0.007915872651287402 -0.036995113517935406
0.008843417808759515 0.007491145109061669 -0.028570290989313657
0.05277301513673886 -0.006346166429079484 -0.022454939205852554
0.054319157239643825 -0.010143257255072766 -0.03340949906168361
0.052606323783254846 -0.009222730802301024 -0.03471712440050364
-0.018555315585063216 0.017035727303922492 0.02671468109385163
-0.01544603564044211 0.02096405788206531 0.03313209878613401
-0.010896427160806113 0.0026818173106244966 0.029990103532244256
-0.02883935247687763 -0.011125118389573675 0.018747466510152754
-0.023436914694056718 -0.005997824028138292 0.019643999983387686
0.05602363978085368 0.006354751618691981 -0.0108171628634774
0.012270667978915293 -0.0025722903508756598 0.0059868245240707885
0.04690601331189193 -0.00034191431472716124 0.01624831258237239
0.0043718758123002235 -0.0024880937786956213 0.022049400521646445
0.04151523829308 0.017253949598697114 -0.015347808014992198
0.008805477150263362 0.0016533156694135973 -0.01909549803300622
0.008945494363169833 0.005156934443090712 -0.01979340700848376
0.029432673462154835 0.01682817463466496 -0.022992419238030165
0.029596071653209252 0.011333936086207537 -0.02542041563027688
-0.005214767037640133 0.013237699732580217 -0.021172212165172177
-0.013371215101148137 -0.010546446326697767 0.010180959646905794
-0.01064006152281261 -0.0012055343379736207 -0.004153502866839109
-8.608289566069334e-05 -0.01255931922137594 -0.038575027284171885
-0.00493586612814042 0.002482514645480767 -0.003656575305136115
0.01084718686280917 -0.000155476205301018 -0.029541218376756065
0.008912416367873006 0.0014786106808519985 -0.02145062045993801
0.021706300054684286 0.025591260216110707 -0.016905401375828848
0.0006951049698088586 0.00955174420086182 -0.04247338074088359
-0.0024721623161550054 0.00038554266475046914 -0.043928569559296034
0.0015801900197781255 -0.00555782032138282 -0.013042467451462009
0.026354790054266608 0.0113624357761046 -0.01177483803530735
0.004564726871410244 0.01606418993012284 -0.017354847844746644
0.012091152844028457 -0.005526652811166208 0.027687583747724537
-0.01515609849380318 -0.028595336327129062 0.026303965869113176
-0.00294774809453777 0.004166774897383029 -0.008769126598765557
-0.01781346950409968 -0.010127144889074608 0.03703450781420575
-0.03366472752618445 -0.018853354518298216 -0.013359341484985411
-0.002488476869531954 -0.006412700393207285 -0.04484722165164263
0.0077508522829934715 0.038966208000298944 0.027368817013671904
0.008684406703567281 -0.010331988311970693 -0.012703501025137726
-0.003083227887124573 0.010805493221728388 -0.017517878928751885
-0.005517406450001224 0.029207926222449117 -0.027951701612885717
-0.04300216690210575 0.03388782047048933 -0.048847264807549064
-0.0066677439739867735 0.017765724757225456 -0.017227796987647016
0.002085872637357348 -0.007930887415277523 -0.03142116149038582
-0.02261581727038655 -0.004533970143482936 0.034117698366289285
-0.0076404650940333435 0.014652421511488704 0.0064120093432804256
-0.019242832755518652 0.007230400894260787 0.038688811364504125
-0.001744190594639317 0.00420784490782926 0.044795866803812825
0.011384511712064603 0.0040013083376765285 0.029707140726185955
-0.03332228156666032 -0.0007176249956639392 -0.011460604679129583
0.051196701194111065 -0.013445652608614342 -0.017763565987887826
0.05633769515147665 -0.012861733535078293 0.00041966848233921755
-0.0016544686274277544 -0.0077235934954114375 0.031713171596883104
0.03126050532824202 -0.012181767629178634 -0.0013707657681567616
-0.037477722009490004 0.0120825428417397 0.01548237999983263
-0.046235375663320456 0.030193883376903832 0.009870925494298615
0.024104853787859586 0.009967830604053235 0.03952234789759334
0.017211874910179382 0.003799228065952095 0.03162849195918652
-0.02100184756164891 0.00345456429669271 -0.022473561808628813
-0.03633067695195578 -0.02656409694045004 -0.007637380845214518
-0.02951095693996553 -0.013707267742340577 -0.010238289204538339
-0.028498634730979702 0.01659375324991423 -0.012804807927731568
-0.025348366525674897 0.01370423433865147 -0.010913880669518119
-0.04368519961362625 -0.012102404642166048 0.001900882935833082
0.021542721072625486 -0.00901249399440048 0.01408235266504868
0.01775430671062072 -0.01100822409245847 0.02301435439108623
-0.0017451463084180228 -0.0012734480069093576 -0.0020144905680248193
-0.0002701548305762095 -0.004762495244576706 0.030977120423055775
-0.022977965795966133 -0.003616514586575739 0.004202820802389269
0.0019140094178271539 0.0006003558081419935 -0.004327821167470718
0.034721171757310584 -0.022874276081002974 -0.0006120945003871238
0.03976246878006601 -0.019156248109672272 -0.0017846015312692899
-0.039867323510077594 0.013974228910084237 -0.021807026257582626
-0.03939097269175914 0.011554133230336104 -0.02073700482814295
0.012542711513934043 -0.0069207532677102845 -0.021221845234645133
0.019953091135235704 -0.013237113650628143 0.018009678981731243
0.017771804488858248 -0.016015531603709495 0.016335088850488205
-0.038486220489956785 0.015758545856925873 0.024578911302068032
0.019015136847996262 -0.006489619605347913 -0.02363501411153706
-0.04691788286832535 -0.009029369598079855 0.05620013591853973
0.028685516817207914 -0.014664695182749671 -0.038174064496137125
0.014189147515256458 -0.020997122008410713 0.026397820613683575
0.02973907717580986 -0.007049183352519043 0.02289767324456086
0.040844620969744574 0.005536697128220274 0.002977964221638664
0.0318745603410636 -0.015803225269953678 -0.004171908107475542
0.0411736691822669 -0.013626551973794124 0.008136099510190318
0.02386363211344806 0.024013305965697406 -0.035437388941689005
0.014726701376933838 -0.02644798395915552 0.018959914201428195
0.014486865041798754 -0.0018656376958317948 -0.017191805267378325
0.05688243203978064 -0.05959331452582908 -0.0015380067456651051
0.013203617313257766 -0.012449161747640205 -0.01458206443480731
0.037411225398280734 0.004325327972577079 -0.02610265746386386
-0.00019849733151285363 0.010598177477048337 0.015197869945195414
0.011336217150655028 0.007030406026116377 -0.011264455832464246
0.00553530179610024 0.02417894672649374 0.013607811155228583
0.015882439583033824 0.011845323013504275 -0.044137616738357685
0.002766118796986997 0.0030599976756146823 -0.014960969557862426
0.017560221207062143 0.016234470678421823 0.004022684264816107
-0.022867564575005987 -0.002961168835644057 -0.020003262326694374
-0.025741464056092303 0.040447781394570434 0.015168949768825414
0.005869078803623136 0.017604382696192047 -0.02863277615177018
0.01134946909426831 0.015709868341292677 -0.009878107795810328
-0.017410431442206768 -0.007291518200110193 -0.010378828948065424
0.0223493433867414 -0.008195939748592415 -0.0015225499700108897
0.004103768084344425 -0.006941123714955398 -0.03543577725748129
-0.03235188175607681 0.012684668308246085 -0.001176328561227645
0.01254194003857282 -0.01073013933651762 0.006242320454183969
-0.005708340078048556 -0.00843679741224517 -0.01487346853197994
0.01498483180074787 -0.014253297644190008 0.004349621991804935
0.02182881169162586 -0.013762917965384114 0.0012914485162435231
-0.022493663460269004 -0.006770972827157012 0.019591105585665274
0.006165177755431626 -0.007121497847619319 0.021377932584613596
-0.0053148913577483565 0.002126712090825326 0.022753106366830617
-0.0010782215185002424 -0.004408422190357251 0.024608987928292917
0.006490984638033851 0.030715557392753744 0.02807373109301059
0.01303368510163871 -0.0010873237930848064 0.033916504354054924
-0.03593997879066619 0.00023281090999856805 -0.01446244397490805
0.004373894210032862 0.03236897844951171 -0.02388370285842941
0.01591781716660837 -0.012792588590393016 -0.03449223722288317
0.00911594467439236 0.031209051503800298 -0.03742573675255169
0.01528326511440839 -0.010785743445997044 -0.05122561203753938
0.01578140998790347 -0.0036021068554380775 0.0333728191948406
-0.015689293133371984 -0.008078867498966903 -0.035855416122821344
-0.020886065459640387 -0.030310780474601944 0.01393329828601574
0.014130855957181698 -0.01102840853138289 0.034851273021905646
0.030671750390045195 -0.006373842799117182 0.03680995838927613
-0.02863932112924281 0.01965460012975526 0.0046829473144111315
0.014929721877202136 0.004821470969771843 -0.04030706577579398
-0.006296386757000479 0.005251615593494602 0.027575330179019437
0.02999882327237444 -0.010076871077620514 0.01524018430652207
0.04688843177979664 -0.010729742143002435 0.018676980696052725
-0.029891353320315676 0.03498955457716148 0.045312126816330886
0.04447072024145181 0.0006944972764673064 0.008346708775552342
0.0373434064097659 0.02087938672939382 -0.020024368196812085
0.045389989533360306 -0.00163390937218784 0.01979652280203671
-0.014779368390827542 0.001389113500612748 0.025415264688401922
-0.033441899114288284 -0.005848549922169882 0.018486519609168427
0.03220800076546406 -0.001724444270996716 0.03121370076192631
0.05614347753983887 0.0005881578438561629 0.035505945394316764
-0.045550182008018116 0.012676955918110673 -0.037184619112957895
0.05449173929186743 -0.008437778721504847 0.04034821868146895
0.03951859806753655 0.004316851996990476 0.0038488708274230237
0.06469252275153256 -0.002958242857800578 0.004235236044532889
-0.007899768923730802 -0.00024677068618781186 -0.029553036074106784
0.028649492750684718 0.010329556199002523 -0.04992278076124843
0.008908958431402733 -0.0006873645433009862 -0.03664534816908944
0.051288672269637674 0.011608669273443681 0.021652125057732802
0.04443887304439031 0.019142720070180842 0.022534681641038695
0.08328087046019335 -0.014923241371824134 0.03992850187786864
0.022964750108630232 -0.003461498287599677 0.03593311463447671
-0.031150529312481884 0.0021263637307357523 0.0056481942304689396
0.05751072351931758 0.01581230310568368 0.013972256266129053
0.07078647682670532 0.014674035671824381 -0.0013152796175788782
0.06619700559077295 0.01318286780879668 0.013494995649638939
0.002089355096601351 -0.02710377648309309 0.0029713783896796074
0.060819026058916884 -0.0019735580513142023 -0.009340434073320372
0.059570658115239115 0.016018711145959475 0.0004862465789272658
0.013205868730170565 -0.023128459965331728 -0.003886822857405339
-0.021121488518095356 -0.0009530022747602627 0.014042970103751683
-0.03429541086162083 0.007432136808684006 -0.022150124790019887
-0.025970702541205103 0.011981917559376474 -0.016827514747419073
0.06687107531433706 -0.04312146387648244 0.005548759785038338
-0.011731294008323597 -0.0050563063512262234 0.03534898674232863
-0.016032887175311344 -0.012375785795346666 -0.0262409526535432
0.022546205975567855 -0.018671427557231026 0.01749437040983872
-0.019603743762542064 0.015258884752558427 -0.008568109897321059
-0.020359802685238744 -0.030183922407098957 0.010404229865489998
-0.013489019406636197 -0.002616605584171797 0.03692707769881607
-0.04070528633936694 0.0001619690377151607 0.04480688001125608
-0.01689010950219511 0.012739675176213786 0.023373134893340936
-0.027995851859595956 0.020323221840559427 -0.011528073138932369
-0.012502620561266733 -0.0005110278705149704 -0.03229211928854037
-0.009810874158550961 -0.00555791886466082 0.008777947312109612
-0.0379254245881315 0.0015975178407610583 -0.02241604398829777
0.001601561406440512 -0.022302765285846123 0.027838329440285015
-0.009752667487273579 -0.009731315025925922 0.014254143578783835
-0.03109763882157169 -0.02129489235815703 -0.0006497623777954843
0.07290374328775374 0.0049853549205718046 -0.010150233433554786
0.0553495156200558 -0.01122791355880756 0.0031037831499947975
-0.018388398421933225 0.014045421919608612 0.020337075165943953
-0.01881234622288861 0.010936494651484722 0.011296306590234005
-0.04009340217892295 -0.0006419986175509594 0.0017448953186958833
0.050856446605428055 -0.010881199964651882 0.005664179576962225
0.05536965450233258 -0.013031812408910354 0.03749666796044969
-0.023156319511442248 -0.025338612514024153 0.015168105871765305
-0.02605352360470657 0.00039432146459015345 -0.029356595790405927
-0.03919448410089388 -0.0010860921521855206 -0.02018764040473724
0.005448200307529429 -0.010821795001332669 0.039339043769511084
0.019161620036104006 0.017075078064399864 -0.018118302501703275
-0.016535913554681075 0.029731256154500722 0.014332362135660774
-0.025290084148937308 -0.0021524781483684137 0.022164883315432215
-0.022706376655009707 0.0006981065443228837 -0.007359584566719947
-0.027131716339177943 -0.029157261378602854 -0.012401111042336118
-0.032524373479057796 -0.02324472262237656 -0.008180274769282321
-0.013495893681952333 -0.010394039684945181 0.03516504291702589
0.04573049123524428 0.01740201656355044 -0.039843583893468766
0.019840562264675895 -0.03023194418143237 0.011715820500025865
-0.012563602823219538 -0.017163341090379158 0.012349487746911485
-0.018042678924847965 0.021556201908340074 -0.04566298865660318
0.005365283832723177 0.010301956632541983 0.03994902888471186
0.013946290634674313 0.0022916854669188225 0.052083772043902944
-0.009533734089774705 0.0054791211254238605 0.0122574325055948
0.07525687785824271 -0.020706601046864684 -0.0090395782096378
0.02468166392601268 -0.01543459123960064 6.997891968476266e-05
0.07744269644607497 -0.012026452721781747 -0.012602745846016134
0.00571618421295167 0.009801200328748098 -0.003975456065640378
0.018703486407724092 -0.009597865273602778 -0.016015192646111124
-0.009032007701144899 0.0030840175960486064 0.0009371710417045033
-0.014310304177758568 -0.0054311815779248245 -0.008430013652889102
0.014908398035930708 0.0005772169002411361 0.013992460159753573
0.019645804426835577 0.0015949130779123648 0.01761968179850408
-0.0016413675570407422 0.0037046265239506046 0.023551365323747474
0.02297336974725029 0.004809066574941624 -0.004393377299751215
-0.024861350263408924 0.00949925304536283 -0.015043787707113817
0.02231307437478564 0.002159726018534032 -0.005868413344450543
0.02927638633900372 0.01114282176145095 0.007344241984612899
-0.02533169811603491 0.007752294186911673 0.003176351700588978
0.006283437306808753 0.0255483267419605 0.019102419438977666
0.05292978764254951 0.03394908859271392 0.00602579276674149
-0.0012888879666496074 0.01115745975621709 -0.009825315463745607
-0.0278941652368123 0.014029935742445819 0.01581053592659412
-0.008473209626343556 -0.0209896603344503 0.012451196274546066