# vtk DataFile Version 2.0
Really cool data
ASCII
DATASET UNSTRUCTURED_GRID
POINTS 584 double
-1.0 0.0 0.0
-0.9600374798207896 -0.027590413451835553 0.04
-0.9589620457797374 -0.028177574718636023 0.0
-0.9553815213922792 0.019675326217199102 0.04
0.6719637381218919 0.02110482676547816 0.0
0.6414775595248179 0.020020515529780993 0.04
0.6571281419012174 0.06 0.0
0.6240641012293764 0.022292119262118645 0.0
0.687851041884645 0.021313940245698455 0.04
0.7030120427199962 0.06 0.04
0.657128141901218 0.06 0.04
0.7030120427199952 0.06 0.0
0.6885310613992013 -0.0196061899732657 0.0
0.6720046167250797 -0.020579604775701428 0.04
0.6407079554435648 -0.019738458112036637 0.0
0.7171469290115033 0.021165332718839136 0.0
-0.7921016077200962 -0.06 0.04
-0.7604373514312079 -0.019298436119384588 0.0
-0.7479973317145423 -0.06 0.04
-0.7479973317145417 -0.06 0.0
0.7030120427199962 -0.06 0.0
0.7030120427199952 -0.06 0.04
0.6571281419012174 -0.06 0.04
0.7479973317145417 -0.06 0.04
0.7325903506195701 -0.020274227246539274 0.0
0.7176321617908783 -0.019839353713154383 0.04
0.7604373514312079 -0.019298436119384588 0.04
-0.8488906624897727 0.019856366527450334 0.04000000000000001
-0.8052789150181434 -0.019306901564895652 0.0
-0.805541091654972 0.020469431563422978 0.04000000000000001
-0.8203038938742353 -0.020636147377884773 0.04
0.897529295217204 0.022569895749215793 0.0
0.8488906624897727 0.019856366527450334 0.0
0.8569454102823642 0.029774901726562965 0.04
0.8777357995360431 0.06 0.0
0.9553815213922792 0.019675326217199102 0.0
0.95349853104827 0.02147987272312249 0.04
0.9103536180674616 -0.021283841161765512 0.0
-0.5450807564691462 -0.01715484187473429 0.04000000000000001
-0.5372746904547943 0.02439300391790418 0.04
-0.49049502097572617 0.000359712426279548 0.04000000000000001
-0.5409244119327052 -0.005150142234760652 0.0
-0.48901428549955095 -0.02776609156780287 0.019771763033692314
-0.4642419910175897 -0.06 0.04
-0.43891524330526177 8.673617379884035e-17 0.04000000000000001
0.7479973317145423 -0.06 0.0
0.9600486361512215 0.06 0.04
1.0 0.06 0.04
1.0 0.06 0.0
0.9192992165657531 0.06 0.0
0.7479973317145423 0.06 0.04
0.7309057796957548 0.02177174945441851 0.039999999999999994
0.7479973317145417 0.06 0.0
0.7613659684934695 0.020945326906433456 0.0
0.7736855084518748 0.020914979208800512 0.04
-0.8570647961856006 -0.015388027432140593 0.0
-0.8569454102823642 0.029774901726562965 0.0
-0.8649535140731797 -0.02016838668923704 0.039999999999999994
-0.1726925416005594 -1.214306433183765e-16 0.039999999999999994
-0.22806385632140147 1.0755285551056204e-16 0.039999999999999994
-0.2006519843784229 0.06 0.0
-0.22806385632140147 -1.1796119636642288e-16 0.0
0.438611990705585 -5.252150912499892e-05 0.04
0.41358849559293387 -0.06 0.04
0.4135884955929341 -0.06 0.0
0.4642419910175897 -0.06 0.0
0.4782715374234063 0.0302584611690398 0.019894876072988572
0.513903464641242 0.06 0.0
0.49049502097572617 0.000359712426279548 0.0
0.46424199101758934 0.06 0.0
0.46424199101758934 -0.06 0.04
-0.8164681441220105 0.022269284396602723 0.0
0.48912437490067595 -0.00041996788971368666 0.04
0.4642419910175897 0.06 0.04
-0.8353421249080566 0.06 0.04
0.8649535140731797 -0.02016838668923704 0.0
0.8973163514988121 0.02144006532192878 0.04
0.5625923446839085 0.06 0.04
0.6103276788742331 0.06 0.0
0.5943416245309461 0.018901239582525348 0.04
0.5790918012159274 0.021628695864523574 0.0
-0.593631917725493 -0.01946781888421301 0.04
-0.6103276788742336 -0.06 0.04
-0.6407079554435648 -0.019738458112036637 0.039999999999999994
-0.6264545933043166 -0.021459100211208025 0.0
-0.6103276788742331 -0.06 0.0
-0.6103276788742336 0.06 0.0
-0.6240641012293764 0.022292119262118645 0.04
-0.6414775595248179 0.020020515529780993 0.0
-0.5943416245309461 0.018901239582525348 0.0
-0.5790918012159274 0.021628695864523574 0.04000000000000001
-0.5625923446839077 0.06 0.04
-0.6103276788742331 0.06 0.04
-0.5625923446839085 0.06 0.0
-0.7325903506195701 -0.020274227246539274 0.039999999999999994
-0.7176321617908783 -0.019839353713154383 0.0
-0.7309057796957548 0.02177174945441851 0.0
-0.7736855084518748 0.020914979208800512 0.0
-0.7613659684934695 0.020945326906433456 0.04
-0.6571281419012174 0.06 0.04
-0.6719637381218919 0.02110482676547816 0.039999999999999994
-0.7030120427199952 0.06 0.04
-0.687851041884645 0.021313940245698455 0.0
-0.029521960903255984 -0.06 0.04
-0.05860957814939871 -6.938893903907228e-17 0.039999999999999994
-0.05860957814939863 5.898059818321144e-17 0.0
-0.08769719539554167 -0.06 0.0
-0.08769719539554144 -0.06 0.04
-0.2823507532564078 -5.204170427930421e-17 0.04
-0.25547572826437986 0.06 0.04
-0.25547572826438003 0.06 0.0
0.38751191920162714 6.938893903907228e-18 0.0
0.3352618020299945 -3.469446951953614e-18 0.0
0.36192316205531716 0.06 0.04
0.3619231620553172 0.06 0.0
-0.36192316205531716 0.06 0.0
-0.335244821032008 -1.1796296425746478e-06 0.0
-0.3352618020299945 -3.469446951953614e-18 0.039999999999999994
-0.38745316199969926 -7.894682722445895e-06 0.0
-0.3619231620553172 0.06 0.04
-0.3092257782484355 0.06 0.04
0.28235075325640757 5.551115123125783e-17 0.039999999999999994
0.30922577824843556 -0.06 0.0
0.335244821032008 -1.1796296425746478e-06 0.04
0.3092257782484355 -0.06 0.04
0.36192316205531716 -0.06 0.0
0.38745316199969926 -7.894682722445895e-06 0.04
0.3092257782484355 0.06 0.0
-0.38751191920162714 6.938893903907228e-18 0.04
-0.28235075325640757 5.551115123125783e-17 0.0
-0.30922577824843556 0.06 0.0
0.6103276788742336 -0.06 0.0
0.593631917725493 -0.01946781888421301 0.0
0.6264545933043166 -0.021459100211208025 0.04
0.4889627886584896 -0.027603176797077415 0.020155725176282127
0.583287522480325 -0.023728770665855194 0.039999999999999994
0.5450807564691462 -0.01715484187473429 0.0
0.5409244119327052 -0.005150142234760652 0.04
-0.48912437490067595 -0.00041996788971368666 0.0
0.3619231620553172 -0.06 0.04
-0.657128141901218 0.06 0.0
0.9600374798207896 -0.027590413451835553 0.0
1.0 0.0 0.04
0.9589620457797374 -0.028177574718636023 0.04
0.5625923446839077 -0.06 0.04
0.5625923446839085 -0.06 0.0
0.7766984080639845 -0.02052537972713625 0.0
-0.438611990705585 -5.252150912499892e-05 0.0
-0.583287522480325 -0.023728770665855194 0.0
-0.9600486361512215 0.06 0.0
-0.95349853104827 0.02147987272312249 0.0
-0.9192992165657539 0.06 0.0
-0.9192992165657531 0.06 0.04
-1.0 0.06 0.0
-0.14473309882269625 -0.06 0.04
-0.14473309882269605 -0.06 0.0
-0.11621514710911887 -1.214306433183765e-16 0.0
-0.17269254160055947 1.1796119636642288e-16 0.0
-0.14473309882269625 0.06 0.0
-0.11621514710911884 1.214306433183765e-16 0.039999999999999994
-0.8353421249080566 -0.06 0.0
-0.8353421249080575 -0.06 0.04
-0.8973163514988121 0.02144006532192878 0.0
-0.897529295217204 0.022569895749215793 0.04
0.11621514710911887 -1.214306433183765e-16 0.039999999999999994
0.05860957814939871 -6.938893903907228e-17 0.0
0.05860957814939863 5.898059818321144e-17 0.039999999999999994
0.08769719539554144 0.06 0.04
0.6103276788742336 0.06 0.04
0.5139034646412424 -0.06 0.0
0.9096368506350345 -0.020963842829632554 0.04
0.805541091654972 0.020469431563422978 0.0
0.8052789150181434 -0.019306901564895652 0.04
0.8203038938742353 -0.020636147377884773 0.0
0.08769719539554144 -0.06 0.0
0.08769719539554167 -0.06 0.04
0.9192992165657531 -0.06 0.04
0.8164681441220105 0.022269284396602723 0.039999999999999994
-0.9103536180674616 -0.021283841161765512 0.04000000000000001
-0.8777357995360431 -0.06 0.0
-0.9096368506350345 -0.020963842829632554 0.0
0.8570647961856006 -0.015388027432140593 0.04
0.7921016077200956 -0.06 0.04
0.8353421249080566 -0.06 0.04
0.7921016077200962 -0.06 0.0
0.4135884955929341 0.06 0.04
0.43891524330526177 8.673617379884035e-17 0.0
-0.7921016077200956 -0.06 0.0
-0.08769719539554144 0.06 0.0
0.14473309882269605 0.06 0.0
0.1726925416005594 -1.214306433183765e-16 0.0
0.11621514710911884 1.214306433183765e-16 0.0
-0.029521960903255984 0.06 0.0
0.0 0.0 0.0
0.17269254160055947 1.1796119636642288e-16 0.04
0.14473309882269625 0.06 0.04
0.0 0.0 0.04
0.2006519843784229 0.06 0.04
0.22806385632140147 -1.1796119636642288e-16 0.04
0.22806385632140147 1.0755285551056204e-16 0.0
-0.6720046167250797 -0.020579604775701428 0.0
-0.7030120427199962 -0.06 0.04
-0.7030120427199952 -0.06 0.0
0.25547572826438003 0.06 0.04
0.30922577824843556 0.06 0.04
0.25547572826437986 0.06 0.0
-0.02952196090325599 0.06 0.04
0.2006519843784232 -0.06 0.04
0.14473309882269605 -0.06 0.04
0.2006519843784229 -0.06 0.0
0.14473309882269625 -0.06 0.0
0.2823507532564078 -5.204170427930421e-17 0.0
-0.36192316205531716 -0.06 0.04
-0.41358849559293387 -0.06 0.0
0.5372746904547943 0.02439300391790418 0.0
0.5139034646412424 0.06 0.04
-0.5139034646412424 -0.06 0.04
0.41358849559293387 0.06 0.0
-0.7171469290115033 0.021165332718839136 0.04
-0.7479973317145417 0.06 0.04
-0.7030120427199962 0.06 0.0
0.08769719539554167 0.06 0.0
0.029521960903255984 -0.06 0.0
-0.02952196090325599 -0.06 0.0
0.02952196090325599 -0.06 0.04
0.02952196090325599 0.06 0.0
0.029521960903255984 0.06 0.04
-0.47805793986482265 0.03008719549728311 0.01940109733029794
-0.4642419910175897 0.06 0.0
0.6103276788742331 -0.06 0.04
1.0 -0.06 0.04
0.9600486361512205 -0.06 0.04
0.9600486361512215 -0.06 0.0
-0.3092257782484355 -0.06 0.0
0.877735799536044 -0.06 0.0
0.8777357995360431 -0.06 0.04
-0.41358849559293387 0.06 0.04
-0.4135884955929341 0.06 0.0
1.0 -0.06 0.0
1.0 0.0 0.0
-0.14473309882269605 0.06 0.04
-1.0 -0.06 0.0
-0.9600486361512215 -0.06 0.04
-1.0 -0.06 0.04
-0.7921016077200962 0.06 0.0
-0.9192992165657531 -0.06 0.0
-0.9600486361512205 -0.06 0.0
-0.7921016077200956 0.06 0.04
-0.7766984080639845 -0.02052537972713625 0.04
-0.5625923446839085 -0.06 0.04
-0.5625923446839077 -0.06 0.0
-0.877735799536044 -0.06 0.04
0.7921016077200962 0.06 0.04
-0.3619231620553172 -0.06 0.0
-0.7479973317145423 0.06 0.0
-0.8777357995360431 0.06 0.04
-0.4135884955929341 -0.06 0.04
-0.46424199101758934 -0.06 0.0
0.513903464641242 -0.06 0.04
-1.0 0.0 0.04
-0.877735799536044 0.06 0.0
-0.30922577824843556 -0.06 0.04
[...]
POINT_DATA 584
VECTORS displacement double
0.006837276514000103 -0.032064250869062436 0.02950104615100829
0.007811922499458587 -0.024884358181682522 0.019502321837296107
-0.004685221981402774 -0.014664414639228865 0.00042132839880847046
-0.00338670106392256 -0.022225649967311887 0.010858565907064271
0.013528484614390867 0.01829315028863635 0.021413401735320445
0.007493041587218452 -0.0014968874056271713 0.012705726655316604
0.0026134930588059316 0.012234182477653514 0.03396812232552865
0.00923645696230587 0.01635436726542964 0.01528853939680259
0.014339320468184029 0.0033436007639101556 0.018706952201996984
0.024279827913266425 -0.011900190664786939 0.015231975703039509
-0.0006761802771702946 0.0010708228332483862 0.02064621471010501
0.020368189372867964 -0.00538733817317556 0.024003938575000574
0.015463752211467216 0.020995420154536953 0.005507247553299942
0.016886578128924617 -0.0006877090897208134 0.006577470539140272
0.02014172506344448 0.017160195733093762 0.00021127932164533884
0.02179155123643659 -0.001024578616007506 0.014279612673763056
0.03991428039629258 -0.021118411980471378 0.012129686595603838
-0.013900703751190352 -0.02532468769909739 0.018824296972765112
0.02046609239847377 -0.006943585338317357 0.03653918928713583
0.02626389028984869 -0.03127505912782543 0.04188647286678332
-0.004117385190589169 0.020580564236129806 -0.01089392766012524
-0.0035961520091519206 0.01091494597461544 0.0016892722974424857
0.012271809140479688 0.0006000989998801903 -0.009387708168574017
-0.02152167215164994 -0.013375967379549856 0.0076510969429669584
0.013584395576427492 -0.0026874946914462123 0.004738423634254727
0.011000056488917094 0.0005909947637504114 0.01151972892308053
0.003747993767669291 -0.015749055264082407 0.009851341479398135
0.0021772975295576767 -0.013531666686841349 -0.0260511149939812
-0.006537480531102123 -0.027165647613140623 -0.02284526562818903
-0.010873306101163806 -0.016641646175718807 -0.01832437526340172
-0.011410537475604122 -0.021865935510953574 -0.022454879182943227
0.00990169349085195 0.013783289866676172 -0.026396661784389118
0.007230863211095401 -0.02323729859064957 -0.02344944614047469
0.012990286876800813 -0.04391775753474281 -0.024357803724584178
0.00036650789804276956 -0.0032396499500591757 -0.01855758909189775
0.01697253263307273 -0.023319456047075974 0.0007839552150981776
0.00680822936610017 -0.018544879832800353 0.00041578001328202097
-0.011553504207294686 0.014508785054560094 -0.015617220058974302
-0.013998395394424419 -0.013183011533432196 -0.00853037679051191
-0.003986782021267873 -0.007746473149823983 -0.008511540431559286
-0.012701671337816304 -0.0035094757214930534 0.010502789111678708
-0.021522074660388347 -0.010384705644674926 -0.00428711848346155
-0.022381518271931494 -0.0018370043616895912 0.009092995168992993
-0.029697965159175523 0.009072023960983376 0.013864420475292547
-0.007173727097149877 0.0005576446485826179 0.016360581373409285
-0.01583772817362418 -0.009888225141318726 -0.0006616147753224406
0.0034943088609612643 -0.0022414145340942508 -0.00466039892878523
0.0015626211142297105 0.03217771570165007 0.0077204442511214786
0.01478305364199744 0.020250449720986198 0.006537000560372868
0.02278278952539957 -0.006915159986514663 -0.023680301900852452
0.04297491242728076 -0.011506929825588584 0.0016445376680721113
0.019239782067621797 -0.006472725412257985 0.014488310828156442
0.04340580728697688 -0.024735988108140244 0.007963206958242725
0.025510730358763934 -0.02737416147571449 0.009294487649320058
0.02289841333942367 -0.029662798244621712 0.0008427975997529966
-0.01910534054494693 0.03907357272545074 -0.04484672870390651
0.0006611251221704844 0.02368335353596582 -0.0204943589019533
-0.017288727129982685 0.02472906959493993 -0.04065507423542871
0.0028164375493328255 0.003129300832496042 0.03040710764148089
0.0013971971500379762 -0.008710786369528415 0.009121389456827812
0.05579315887378794 0.003135786221655241 0.02564054643032079
-0.0012523075358706129 -0.009339260366257419 0.012686851668073498
0.0013430868471452475 -0.0005627955938646418 0.007427547550793862
0.05033328953482356 0.008594878534838797 -0.015251080598697422
0.05178399034935808 0.027666985940050154 -0.015240958712634924
0.0545195431905822 0.01505880986297832 -0.012807462266251827
-0.01505973146962498 -0.0078065853660391005 0.006504383899945576
-0.024891372337302986 -0.009085552904747657 0.0034955268060338964
0.008979729606133195 -0.005368697555434664 0.0017767286709964155
-0.03308167614540109 -3.856397573759132e-05 0.019249267124994425
0.051298107750587935 0.00527419332062509 -0.003650224559082646
-0.0024068095773252533 -0.02791460047119269 -0.025183863644260656
0.007353910344391682 -0.011593981228881292 0.0010940045030515982
-0.03479470513583936 -0.0037114470606141865 0.006093093173131288
-0.014089469843610652 0.0035766581184775233 -0.020741430653305692
-0.0011068100769123536 -0.01943510679509336 -0.026647588340218166
0.009245812364050959 0.021024690405039136 -0.01935213631453872
-0.017892379116099175 -0.0021698499143999925 -0.005260257430521166
-0.01001467107333033 0.01698730924941939 0.020153773509395175
0.00670793891067573 -0.0027183061829775712 0.0005078696014468914
0.005134578228065299 0.0031035023641297326 0.0028062700330808666
-0.011684972040926842 0.006147299579079049 -0.015808151167803108
0.01714844076346338 0.00024683459925213053 -0.012381641002734556
-0.011005188275188036 -0.028966290804982708 -0.00417356220943821
-0.021408788274122723 -0.00944712257472859 -0.0023293678785082737
0.0013257609648771504 -0.004094872513537355 -0.009700708439369177
-0.024624302827303997 0.021597440922366797 0.007440430045698985
-0.023411651693162172 0.0032967036309543866 -0.007913835486660465
-0.027912069608975368 0.012432000983480431 0.013582568954616167
-0.02922167089344026 0.01718177378918663 -0.0037426945221609273
-0.01746417814884566 0.008908996880007649 -0.0120005765849516
0.003753254741892337 -0.02062842687214255 -0.012979780237490168
-0.02567459904078889 0.01394382754366334 -0.004307055806605589
0.00020007763513596493 -0.015284527753257324 -0.008078101391035607
-0.007806318422093854 -0.025594674776089274 0.020316995256059914
-0.013880512367948943 -0.023045509122091034 0.022380311645411037
-0.014611212753151023 0.0028323205292429448 0.022226944559302613
0.013326858304955098 -0.033087681943819634 -0.003951169432993126
0.010461947960617097 -0.016681286682215236 -0.0046718993536554836
-0.02773011958757142 0.025405545234882778 0.01618959834256922
-0.015382308243051365 0.012056103076499201 0.008627140271548664
-0.032517545263796445 0.017413955208433175 0.024576147106139853
-0.022270824812777274 0.015782834103669412 0.02186324551948456
-0.014635309930554962 0.010855288660312082 -0.01964452723091743
-0.004759895354353353 -0.0038238589746218857 -0.011037842531291435
-0.012660517699434432 -0.00539843702098374 -0.015966381533342944
-0.03211257120345756 0.015091599572781956 -0.002514354455032969
-0.03324449623059127 0.013294296989513796 -0.005302469442710921
-0.0032705488612517243 -0.005338770440053382 -0.014956860507494325
0.06482126151112916 -0.003221945360462523 -0.013545611677939442
0.05884439545361895 -0.01000528687892982 -0.004156035218598635
7.27315387416963e-05 0.03139700715554459 0.005885539528673652
0.005611110666744372 -0.0032451360084803905 -0.009280830586430318
-0.051252422731014366 0.003989624851015687 0.013849754751369459
-0.043042590545172114 0.014191328142403477 0.011438746345934265
0.04773956082856933 -0.00612402313973707 -0.00886749898545513
-0.00891571609371614 0.0023448323446991024 -0.022309528952622195
-0.0032032235657800073 -0.0023855691750134357 -0.017781710537554805
-0.013517691003595723 0.014636879929265928 -0.0076213020253586014
0.05380839932582213 -0.01035374290622953 -0.0073829070625933
0.05754619850968161 -0.004140499906233211 -0.02166469859655348
-0.007395443339717551 -0.001150422571200105 -0.012189360450738812
0.06202054426391417 0.010002523603940371 -0.015433739269130158
0.0011768840562084999 -0.0036161049814295953 -0.0039629020150904705
0.05937823701186336 0.0070356115088238 -0.015754797075545453
0.06562824752658118 -0.008644499311781812 -0.010123808941769417
-0.006443919178425141 0.017781821207842708 0.002924761059557786
-0.040540475367975476 -0.022583917581331717 -0.01681651106743205
-0.008038686597863125 0.00416074668782251 0.0005538765809519315
-0.003070445132297889 -0.0050771529820460735 -0.014242856084282399
0.05597962410262192 -0.003996884018832069 -0.02049905537283459
0.025250719665784297 0.0081076997047927 -0.020589692825243543
0.02415651474210871 0.011566005825185882 -0.0069766684891761355
0.0195485185855703 -0.0037925213071366448 -0.0011848373345240489
0.029999536896385483 -0.005392242843271104 -0.002775940495058695
0.02501295257726847 0.0010637473658821595 -0.006571038259743243
0.023771320825981143 -0.006948204446869914 -0.0068670107487646525
0.01563635118098307 -0.009541917246875246 -0.00593520441415854
-0.017806158740156557 -0.003399191932333352 0.009979262181880562
0.06216599979916273 -0.025677771263395373 -0.008386966195551862
-0.02789999799500196 0.03054283729774102 0.025912937500485046
-0.004356678229228252 -0.01634020401847436 0.017490899348589453
0.00017820286525582735 0.03967029918502325 0.02393547352517308
-0.020662147121578954 -0.007993885413208083 0.012009213671530662
0.04987655942782636 -0.011509233766465414 -0.009883326542531034
0.04196780696326105 -0.004125528719744226 -0.017631235037827882
0.008963596422827671 -0.010365882076711613 -0.0023166335567405935
-0.015039327981634945 0.008269764142429933 0.00967681957177744
-0.020316544240770368 0.006554155528162438 -0.009752364013896423
-0.0077911554071517924 0.04679878829348078 0.0592901951470144
0.0009162010810216457 0.009662027741812605 0.029525796825996174
-0.027818116440654996 0.05249974205662123 0.042275805420857744
-0.04030639552318593 0.00852780856605392 0.028501894810721847
0.022019529766239204 0.02483920514369488 0.04397319865178135
-0.036315637176241214 -0.0032991272784823416 0.01834423572610265
-0.04298885567060004 0.002658585145632339 0.01772702250667061
-0.012083924241976839 0.0050627772231728934 0.014607967315513708
-0.004077201738287781 0.0065715639337130816 0.028283651262011798
0.047446484928111744 0.01188933244144932 0.029439289696712286
-0.0037601897358355944 -0.0013756492670509949 0.01857671075921059
0.05388160566980594 0.012459894595490717 -0.04673221375505977
0.054070301919192584 0.00012357843982762777 -0.03594170960971909
-0.015047079026594133 0.055596309767665816 -0.0038692082413908304
-0.007352052252237274 0.03281825959600199 -0.01060666149536456
-0.014797935999935943 0.007088106878241738 0.028110647982024936
-0.008731695676009092 -0.0065040755463242565 0.0013982992931901082
-0.01086260776146639 -0.0012129391165165413 0.005642783282316739
-0.005086179388185561 -0.0030373892173042945 0.011905368457616737
-0.011392054574106303 0.011039754822390505 0.01146952425076379
0.05287565949712331 -0.0035585482588473827 -0.009544347486833986
-0.021556562084550382 0.01843834349502897 -0.010859003242331874
0.020180529513637347 0.011529278918814499 -0.005841732475354056
0.008581368787610092 0.011667881215393845 -0.002259615209549435
0.003395807500334823 0.00010465435543191459 -0.01564063815925938
0.010302545870101452 0.001137004768946234 0.017534489297108102
0.0029174899980343623 0.0011086250699482891 0.01702112483147332
-0.058570352110403116 0.02568862502440838 -0.00963130783343331
0.019610578947960946 0.009573245144605246 -0.011729438400781127
-0.010980538749519405 -0.013891309276058071 -0.02711518022915635
0.06358877948780695 0.06653440769402466 -0.07718772439881347
-0.022517910996830072 0.0322157530866989 -0.030697247352542437
0.00036345719452000863 -0.01811897595383141 -0.015872242319821848
-0.030519563755771015 0.017058571826219466 0.004841352125251771
-0.04876887186514839 -0.007926512100125883 -0.008550104221742676
-0.021423923503264365 0.004440453743274389 -0.0009705385358198276
-0.043798094663191754 0.0008565775602485833 0.02522015052882319
0.0036130277298944188 0.012644344254639664 0.005653216872190056
0.05090400585015171 -0.027761306403701343 -0.005101845000025287
0.03356952428639616 0.0003063145090717695 -0.0025744739845535588
-0.018097692303225922 0.001331766813755496 0.015997660978113473
-0.017160727093702147 0.0012597852437071545 0.016123500150402537
-0.012957599864833363 0.002849992270193098 0.022186753508651513
0.02229084150979145 -0.01835954385389299 -0.035876519504978416
-0.004890359529866198 -0.010837192174998914 -0.024163691781181138
-0.016898930071449526 0.0013615165551073925 0.020366565642930684
-0.020910593061235678 0.0040264715830339885 0.02345238238014593
-0.006692866977785655 -0.004809733323952199 -0.01723459126434122
-0.039986635739784115 -0.0032467360507085017 0.0015265527467497122
-0.009095543034829047 -0.008382410922197879 -0.00036049047692563477
-0.00641868627452588 -0.008786633377023604 -0.005322185583718061
-0.0164853175715246 -0.0014697092160759818 0.014311737207159742
0.022349325319559698 -0.0002272576408252366 0.026767970792909858
0.02060831195644588 -0.013860668043055437 0.029289471329127938
-0.047255214484045995 -0.011435764739421449 -0.021031727244257923
-0.04741643083187174 -0.018172929249365647 -0.014312073277525357
-0.04278718054439882 -0.01791204023594981 -0.024073541886069996
0.02761124879602237 -0.008578069342682132 -0.03183575337275712
0.03560197853122528 0.03370548287398261 -0.0007802526103671324
0.013376522352479143 0.0034878790916502626 0.019005246458866344
0.026189236978742668 0.0323755647434943 0.0013640958224082672
0.011454332254442747 0.011880354770794114 0.025059701332484034
-0.0028113472810251732 -0.0055941536414407505 -0.016826548710014558
-0.04644604877273479 0.011760779384194519 -0.02217497331108723
-0.04683773098988877 0.021380785766657685 -0.013698195766218679
-0.0018467230358545958 -0.009627602984646556 0.0016588477608978436
-0.027368465891481827 -0.005743326302884516 -0.00865220656670768
-0.020193298082227727 -0.005003373951903284 0.007183033574426764
-0.03755652968973086 0.020131827134630808 0.028857853663792298
-0.017571298659080147 -0.006119640699487395 0.007102641452294013
-0.011870730047834187 0.0727424737826174 0.005146740924586068
-0.03387071922223216 0.022886723894742184 0.03253064142645255
-0.006530827102281151 -0.008392971715427156 0.004250427936485758
0.002582742710975791 -0.0005975306332145572 -0.008929267649644582
-0.014615928753650285 0.005152531003547909 -0.018532166384301982
-0.005243371166060047 0.004969511125865777 -0.005850893622748538
0.009563127746702 -0.009069178346656104 -0.026149005584167773
0.009920400226853724 -0.0005482719045303725 -0.020007269396142058
0.005323915299212216 -0.007511746504995051 0.015997095665123338
0.027786048752937 -0.007997856314057682 0.020593418761110188
0.026968455555844408 -0.0043659837867525446 -0.011987967859624795
-0.0696695456575922 0.01639088985640318 0.02738546772009562
-0.06467465759038561 -0.02043967665606794 0.01868136196150794
-0.04701129044921845 -0.022383204699923484 0.02142999606782708
-0.04829686314551715 0.004536423173352753 -0.02568358040303336
-0.037873460992845956 -0.017725327573556198 -0.013568939482352254
-0.05381745977340126 -0.0037031277826265275 -0.012795988864414439
0.043485395982483285 -0.005026572640183445 0.018569649037814915
0.039024124570304054 0.0014734096720116778 0.014833954331320372
-0.040990586222605443 0.011071571448702612 0.04844889957676407
0.01906493849134516 0.02591269859773273 0.028510887341740836
0.05855003949887687 0.009820006297422927 0.030584223469882998
0.002384095704021051 -0.05166205114649127 0.027178399654704158
0.061699260508412956 0.05613538168173393 0.0273602204653481
0.025577060618171284 -0.05556561263120944 0.055470618855859403
0.003990744067986633 -0.0636387142239871 -0.02909856273713299
0.07150863925563222 0.006382970425050403 -0.06005846087567037
0.036995418225153474 0.02119554224925825 -0.014215153901387521
0.004541556467096589 -0.048083086172956944 -0.03426445580316059
-0.0234984821274498 0.013983448671456691 0.004150255833456785
-0.005203890218925009 -0.009582310651587597 -0.010887698525445268
-0.020204165722208553 -0.008929399321466783 -0.01163985939913971
0.0749987844409323 0.046854727716272755 -0.05307143585035845
0.03807028289233164 0.013925312149879684 -0.0012989236231256134
-0.0495679321965565 0.01975450402079453 -0.02743503444486542
-0.005684719948197034 0.04207178320222282 0.0028947164805590377
-0.004715323632497148 -0.0008962262355083003 0.005179415591532692
-0.03515016353497357 0.009061130265016187 0.00014235911501538588
-0.0338247249540834 0.012948587632439012 0.005683824252280659
0.05436718692345029 -0.005793544487848425 -0.004803881429258013
0.002135986053677498 -0.017148863207659664 0.014452637262599639
-0.008500907997430732 0.03353056257447581 0.007847198354610811
-0.046462762631542615 0.003990865632074206 -0.023380639128393856
-0.046709908907494775 -0.006758017279032776 -0.004644314716321405
0.04226856073765038 0.0036741050110143674 -0.0008172599532554545
0.05415591893149666 2.3378280013497458e-05 -0.012839212146134558
-0.04583485318941087 -0.007513225746636967 -0.004626665367356161
-0.017345409997430342 0.05796661692824694 0.029948050551756335
0.0955794980649537 -0.010768704243783426 -0.028179349024334954
0.016385445823174707 -0.005814052328750404 0.005961364247738683
-0.009163978361498676 0.002678517473563284 0.013313023886787017
0.016727014333949523 -0.018443195622267636 -0.009332020599090366
0.0130080736165623 0.030295357735708187 8.413809061577237e-05
0.018846561521454162 0.00413262388261073 -0.004676542664847721
0.03382696340291546 -0.015362789793944748 0.01899029415269223
0.002008226325564266 -0.014840458978629399 0.007139933414582928
-0.0032655899535782595 0.010555596490678828 -0.025363991639013636
0.011906281935695939 -0.0029336817632119464 -0.019261963686470332
0.05190066915184323 -0.0012799097786382364 -0.012258855636691726
-0.035631016349897654 -0.016863867507400643 -0.009830784588858789
-0.023057504839283108 -0.009195191947504696 -0.0008613505555138056
0.0623564404542054 0.007444722268216568 0.01732281309509546
-0.00019286350401426147 0.005201904966979369 -0.019907124588728176
0.039550863035792125 0.025554586781141194 -0.0006425381174505936
0.04484243431642243 0.03780486429642462 -0.017904958892831398
0.04101903506624017 0.013206855913946935 0.004649774373294449
-0.04405087609975748 0.016125818497858633 -0.003131935832453446
-0.018142947413639237 0.0006898440869765535 0.004558081888724966
0.009321845015940083 -0.006114545257638598 0.003922667545797517
0.008234503300176166 0.019546346298897285 -0.01816388894155198
-0.04010230262311924 0.0026342408030950813 0.01928048850904167
-0.038553991729194804 0.0049281538880140635 0.021694422520090635
-0.02812278890720153 -0.01053356005268785 -0.005571560577759435
0.07181143984166875 -0.030096943782220983 0.006440747166610206
0.02138922925344714 0.011348556185685404 0.01575276574344184
0.0713249608070087 0.01649972996553943 0.027725964498939305
-0.002293527457899988 -0.015325779450119457 -0.0068679783290588915
-0.012677801830248829 0.0024818416806547533 0.024748118383690326
-0.009393298360916473 0.013885921428575258 -0.0084118274227231
0.0034117968846241273 -0.03272363262797511 -0.010620881165031003
-0.039145400663714344 -0.0027865260992142307 -0.007451252755298605
-0.03374719603632151 -0.006493255788867579 0.00794394467417804
0.004953563357793986 0.0008855137920534826 -0.003514430627708325
0.0026153637060853706 0.004519232849255579 -0.02773141177486251
0.00015965523741595224 0.009836979185363814 -0.02734357490475393
-0.0026858352106150034 -0.010697947721926594 -0.019423937896930317
0.02386928666714192 -0.012610922665855359 0.024625213399003764
-0.008380814285754733 0.016064075507689672 -0.0033734277069397698
0.010881313043465993 0.02761761593384199 -0.006334968441802603
0.06397674702196396 0.007701552087510262 -0.01781150737764449
-0.0071708273324848715 0.01731149201456688 -0.015546947300368
-0.032808473091379006 0.002998267417795142 0.02044095892088275