# vtk DataFile Version 2.0
Really cool data
ASCII
DATASET UNSTRUCTURED_GRID
POINTS 584 double
-1.0 0.0 0.0
-0.9600374798207896 -0.027590413451835553 0.04
-0.9589620457797374 -0.028177574718636023 0.0
-0.9553815213922792 0.019675326217199102 0.04
0.6719637381218919 0.02110482676547816 0.0
0.6414775595248179 0.020020515529780993 0.04
0.6571281419012174 0.06 0.0
0.6240641012293764 0.022292119262118645 0.0
0.687851041884645 0.021313940245698455 0.04
0.7030120427199962 0.06 0.04
0.657128141901218 0.06 0.04
0.7030120427199952 0.06 0.0
0.6885310613992013 -0.0196061899732657 0.0
0.6720046167250797 -0.020579604775701428 0.04
0.6407079554435648 -0.019738458112036637 0.0
0.7171469290115033 0.021165332718839136 0.0
-0.7921016077200962 -0.06 0.04
-0.7604373514312079 -0.019298436119384588 0.0
-0.7479973317145423 -0.06 0.04
-0.7479973317145417 -0.06 0.0
0.7030120427199962 -0.06 0.0
0.7030120427199952 -0.06 0.04
0.6571281419012174 -0.06 0.04
0.7479973317145417 -0.06 0.04
0.7325903506195701 -0.020274227246539274 0.0
0.7176321617908783 -0.019839353713154383 0.04
0.7604373514312079 -0.019298436119384588 0.04
-0.8488906624897727 0.019856366527450334 0.04000000000000001
-0.8052789150181434 -0.019306901564895652 0.0
-0.805541091654972 0.020469431563422978 0.04000000000000001
-0.8203038938742353 -0.020636147377884773 0.04
0.897529295217204 0.022569895749215793 0.0
0.8488906624897727 0.019856366527450334 0.0
0.8569454102823642 0.029774901726562965 0.04
0.8777357995360431 0.06 0.0
0.9553815213922792 0.019675326217199102 0.0
0.95349853104827 0.02147987272312249 0.04
0.9103536180674616 -0.021283841161765512 0.0
-0.5450807564691462 -0.01715484187473429 0.04000000000000001
-0.5372746904547943 0.02439300391790418 0.04
-0.49049502097572617 0.000359712426279548 0.04000000000000001
-0.5409244119327052 -0.005150142234760652 0.0
-0.48901428549955095 -0.02776609156780287 0.019771763033692314
-0.4642419910175897 -0.06 0.04
-0.43891524330526177 8.673617379884035e-17 0.04000000000000001
0.7479973317145423 -0.06 0.0
0.9600486361512215 0.06 0.04
1.0 0.06 0.04
1.0 0.06 0.0
0.9192992165657531 0.06 0.0
0.7479973317145423 0.06 0.04
0.7309057796957548 0.02177174945441851 0.039999999999999994
0.7479973317145417 0.06 0.0
0.7613659684934695 0.020945326906433456 0.0
0.7736855084518748 0.020914979208800512 0.04
-0.8570647961856006 -0.015388027432140593 0.0
-0.8569454102823642 0.029774901726562965 0.0
-0.8649535140731797 -0.02016838668923704 0.039999999999999994
-0.1726925416005594 -1.214306433183765e-16 0.039999999999999994
-0.22806385632140147 1.0755285551056204e-16 0.039999999999999994
-0.2006519843784229 0.06 0.0
-0.22806385632140147 -1.1796119636642288e-16 0.0
0.438611990705585 -5.252150912499892e-05 0.04
0.41358849559293387 -0.06 0.04
0.4135884955929341 -0.06 0.0
0.4642419910175897 -0.06 0.0
0.4782715374234063 0.0302584611690398 0.019894876072988572
0.513903464641242 0.06 0.0
0.49049502097572617 0.000359712426279548 0.0
0.46424199101758934 0.06 0.0
0.46424199101758934 -0.06 0.04
-0.8164681441220105 0.022269284396602723 0.0
0.48912437490067595 -0.00041996788971368666 0.04
0.4642419910175897 0.06 0.04
-0.8353421249080566 0.06 0.04
0.8649535140731797 -0.02016838668923704 0.0
0.8973163514988121 0.02144006532192878 0.04
0.5625923446839085 0.06 0.04
0.6103276788742331 0.06 0.0
0.5943416245309461 0.018901239582525348 0.04
0.5790918012159274 0.021628695864523574 0.0
-0.593631917725493 -0.01946781888421301 0.04
-0.6103276788742336 -0.06 0.04
-0.6407079554435648 -0.019738458112036637 0.039999999999999994
-0.6264545933043166 -0.021459100211208025 0.0
-0.6103276788742331 -0.06 0.0
-0.6103276788742336 0.06 0.0
-0.6240641012293764 0.022292119262118645 0.04
-0.6414775595248179 0.020020515529780993 0.0
-0.5943416245309461 0.018901239582525348 0.0
-0.5790918012159274 0.021628695864523574 0.04000000000000001
-0.5625923446839077 0.06 0.04
-0.6103276788742331 0.06 0.04
-0.5625923446839085 0.06 0.0
-0.7325903506195701 -0.020274227246539274 0.039999999999999994
-0.7176321617908783 -0.019839353713154383 0.0
-0.7309057796957548 0.02177174945441851 0.0
-0.7736855084518748 0.020914979208800512 0.0
-0.7613659684934695 0.020945326906433456 0.04
-0.6571281419012174 0.06 0.04
-0.6719637381218919 0.02110482676547816 0.039999999999999994
-0.7030120427199952 0.06 0.04
-0.687851041884645 0.021313940245698455 0.0
-0.029521960903255984 -0.06 0.04
-0.05860957814939871 -6.938893903907228e-17 0.039999999999999994
-0.05860957814939863 5.898059818321144e-17 0.0
-0.08769719539554167 -0.06 0.0
-0.08769719539554144 -0.06 0.04
-0.2823507532564078 -5.204170427930421e-17 0.04
-0.25547572826437986 0.06 0.04
-0.25547572826438003 0.06 0.0
0.38751191920162714 6.938893903907228e-18 0.0
0.3352618020299945 -3.469446951953614e-18 0.0
0.36192316205531716 0.06 0.04
0.3619231620553172 0.06 0.0
-0.36192316205531716 0.06 0.0
-0.335244821032008 -1.1796296425746478e-06 0.0
-0.3352618020299945 -3.469446951953614e-18 0.039999999999999994
-0.38745316199969926 -7.894682722445895e-06 0.0
-0.3619231620553172 0.06 0.04
-0.3092257782484355 0.06 0.04
0.28235075325640757 5.551115123125783e-17 0.039999999999999994
0.30922577824843556 -0.06 0.0
0.335244821032008 -1.1796296425746478e-06 0.04
0.3092257782484355 -0.06 0.04
0.36192316205531716 -0.06 0.0
0.38745316199969926 -7.894682722445895e-06 0.04
0.3092257782484355 0.06 0.0
-0.38751191920162714 6.938893903907228e-18 0.04
-0.28235075325640757 5.551115123125783e-17 0.0
-0.30922577824843556 0.06 0.0
0.6103276788742336 -0.06 0.0
0.593631917725493 -0.01946781888421301 0.0
0.6264545933043166 -0.021459100211208025 0.04
0.4889627886584896 -0.027603176797077415 0.020155725176282127
0.583287522480325 -0.023728770665855194 0.039999999999999994
0.5450807564691462 -0.01715484187473429 0.0
0.5409244119327052 -0.005150142234760652 0.04
-0.48912437490067595 -0.00041996788971368666 0.0
0.3619231620553172 -0.06 0.04
-0.657128141901218 0.06 0.0
0.9600374798207896 -0.027590413451835553 0.0
1.0 0.0 0.04
0.9589620457797374 -0.028177574718636023 0.04
0.5625923446839077 -0.06 0.04
0.5625923446839085 -0.06 0.0
0.7766984080639845 -0.02052537972713625 0.0
-0.438611990705585 -5.252150912499892e-05 0.0
-0.583287522480325 -0.023728770665855194 0.0
-0.9600486361512215 0.06 0.0
-0.95349853104827 0.02147987272312249 0.0
-0.9192992165657539 0.06 0.0
-0.9192992165657531 0.06 0.04
-1.0 0.06 0.0
-0.14473309882269625 -0.06 0.04
-0.14473309882269605 -0.06 0.0
-0.11621514710911887 -1.214306433183765e-16 0.0
-0.17269254160055947 1.1796119636642288e-16 0.0
-0.14473309882269625 0.06 0.0
-0.11621514710911884 1.214306433183765e-16 0.039999999999999994
-0.8353421249080566 -0.06 0.0
-0.8353421249080575 -0.06 0.04
-0.8973163514988121 0.02144006532192878 0.0
-0.897529295217204 0.022569895749215793 0.04
0.11621514710911887 -1.214306433183765e-16 0.039999999999999994
0.05860957814939871 -6.938893903907228e-17 0.0
0.05860957814939863 5.898059818321144e-17 0.039999999999999994
0.08769719539554144 0.06 0.04
0.6103276788742336 0.06 0.04
0.5139034646412424 -0.06 0.0
0.9096368506350345 -0.020963842829632554 0.04
0.805541091654972 0.020469431563422978 0.0
0.8052789150181434 -0.019306901564895652 0.04
0.8203038938742353 -0.020636147377884773 0.0
0.08769719539554144 -0.06 0.0
0.08769719539554167 -0.06 0.04
0.9192992165657531 -0.06 0.04
0.8164681441220105 0.022269284396602723 0.039999999999999994
-0.9103536180674616 -0.021283841161765512 0.04000000000000001
-0.8777357995360431 -0.06 0.0
-0.9096368506350345 -0.020963842829632554 0.0
0.8570647961856006 -0.015388027432140593 0.04
0.7921016077200956 -0.06 0.04
0.8353421249080566 -0.06 0.04
0.7921016077200962 -0.06 0.0
0.4135884955929341 0.06 0.04
0.43891524330526177 8.673617379884035e-17 0.0
-0.7921016077200956 -0.06 0.0
-0.08769719539554144 0.06 0.0
0.14473309882269605 0.06 0.0
0.1726925416005594 -1.214306433183765e-16 0.0
0.11621514710911884 1.214306433183765e-16 0.0
-0.029521960903255984 0.06 0.0
0.0 0.0 0.0
0.17269254160055947 1.1796119636642288e-16 0.04
0.14473309882269625 0.06 0.04
0.0 0.0 0.04
0.2006519843784229 0.06 0.04
0.22806385632140147 -1.1796119636642288e-16 0.04
0.22806385632140147 1.0755285551056204e-16 0.0
-0.6720046167250797 -0.020579604775701428 0.0
-0.7030120427199962 -0.06 0.04
-0.7030120427199952 -0.06 0.0
0.25547572826438003 0.06 0.04
0.30922577824843556 0.06 0.04
0.25547572826437986 0.06 0.0
-0.02952196090325599 0.06 0.04
0.2006519843784232 -0.06 0.04
0.14473309882269605 -0.06 0.04
0.2006519843784229 -0.06 0.0
0.14473309882269625 -0.06 0.0
0.2823507532564078 -5.204170427930421e-17 0.0
-0.36192316205531716 -0.06 0.04
-0.41358849559293387 -0.06 0.0
0.5372746904547943 0.02439300391790418 0.0
0.5139034646412424 0.06 0.04
-0.5139034646412424 -0.06 0.04
0.41358849559293387 0.06 0.0
-0.7171469290115033 0.021165332718839136 0.04
-0.7479973317145417 0.06 0.04
-0.7030120427199962 0.06 0.0
0.08769719539554167 0.06 0.0
0.029521960903255984 -0.06 0.0
-0.02952196090325599 -0.06 0.0
0.02952196090325599 -0.06 0.04
0.02952196090325599 0.06 0.0
0.029521960903255984 0.06 0.04
-0.47805793986482265 0.03008719549728311 0.01940109733029794
-0.4642419910175897 0.06 0.0
0.6103276788742331 -0.06 0.04
1.0 -0.06 0.04
0.9600486361512205 -0.06 0.04
0.9600486361512215 -0.06 0.0
-0.3092257782484355 -0.06 0.0
0.877735799536044 -0.06 0.0
0.8777357995360431 -0.06 0.04
-0.41358849559293387 0.06 0.04
-0.4135884955929341 0.06 0.0
1.0 -0.06 0.0
1.0 0.0 0.0
-0.14473309882269605 0.06 0.04
-1.0 -0.06 0.0
-0.9600486361512215 -0.06 0.04
-1.0 -0.06 0.04
-0.7921016077200962 0.06 0.0
-0.9192992165657531 -0.06 0.0
-0.9600486361512205 -0.06 0.0
-0.7921016077200956 0.06 0.04
-0.7766984080639845 -0.02052537972713625 0.04
-0.5625923446839085 -0.06 0.04
-0.5625923446839077 -0.06 0.0
-0.877735799536044 -0.06 0.04
0.7921016077200962 0.06 0.04
-0.3619231620553172 -0.06 0.0
-0.7479973317145423 0.06 0.0
-0.8777357995360431 0.06 0.04
-0.4135884955929341 -0.06 0.04
-0.46424199101758934 -0.06 0.0
0.513903464641242 -0.06 0.04
-1.0 0.0 0.04
-0.877735799536044 0.06 0.0
-0.30922577824843556 -0.06 0.04
[...]
POINT_DATA 584
VECTORS displacement double
0.002572080279408037 0.016698479191974144 -0.03254243590693225
0.004107751319638961 0.010817521597242098 -0.0135679362012983
0.01941975422016184 0.006153571356766705 -0.002062791868731298
-0.0049496494492105745 0.008006982960462001 -0.005416027761558175
-0.0020151523193364046 -0.03827110440101765 -0.04183970521083006
-0.0030368138416192124 -0.004497352842749119 -0.04141073931792605
0.018069531296305112 -0.0305431274894538 -0.06237138762947958
-0.0018467954243786436 -0.005745531378724953 -0.044571575837566824
-0.011517674636299755 -0.01877395295103057 -0.027153023799031138
-0.0027848458958864082 -0.0031879171446568947 -0.017697435346620417
0.015593482711507506 -0.011489461759843151 -0.0477985862546204
0.006090466389139597 -0.014501278621714185 -0.024217346249615874
-0.0013586013963486495 -0.03547777877684887 -0.018961331615811657
-0.007741358847031162 -0.01604688128841321 -0.01995990310692373
-0.005876684398779819 -0.017940746970864167 -0.03715435883727337
-0.007485464339489964 -0.011096660411003802 -0.005222183341417614
-0.020045976289563366 0.022005525969545397 -0.02806455712829969
0.021456460829238733 0.0178877720889032 -0.035996609016567316
-0.008231684200740842 0.008694841970621458 -0.04567316034432504
-0.006096816440267298 0.030879356633219515 -0.054592602002320564
0.033616034930975994 -0.022351676814737383 0.003891920723681042
0.028073761185784692 -0.003591522370304462 0.007563489650014997
0.012711701530679504 0.0033571458735904744 -0.010255602161155515
0.023309553851560517 -0.007687538494768516 0.008591372949700443
-0.0019741442759099097 0.0016607689246593235 0.009591363385463382
-0.0082410194622202 0.0032464628929331223 0.0013434544904198829
-0.009828702063938129 0.012209379818345042 0.01562598693101245
-0.01184451321322329 0.00780113304120547 0.02113212114079388
0.008869098858490103 0.02000222801533654 -0.005987105093122681
-0.004241204479615041 0.0061439301498237096 -0.0028893192453091658
0.008219583029701433 0.015028309614821066 0.004478165080541932
0.005229135760205205 -0.024515030624710856 -0.00015687949409286353
-0.010073479250160396 0.009435626114540853 0.018474650173657604
-0.009819281954491105 -0.006032298162620803 0.009482260348882679
0.010345643872854731 -0.0190464741883668 0.008908635633214035
0.007634702679640131 0.010610489260647664 0.007032813178859208
-0.0026313635930424423 -0.007842481367732865 0.005141305835778621
0.007666845754537946 -0.016969108908446405 -0.009049178496935
0.021502933237261743 -0.008201471712910172 -0.009502971384099184
0.016786476866150913 -0.003231495422040913 -0.017112657427088136
0.018768113409070187 0.0017311492101442791 -0.037651048698104546
0.015829495755824683 -0.005582428829564874 -0.017145887172499572
0.014147176997747956 0.006018539559871639 -0.044505309485749635
0.008798986961403344 0.00806968782096534 -0.039523889073021026
0.015688771177675292 0.0015977869757150063 -0.020831106326334677
0.028180449417655754 0.006825799821455528 0.006096215215223673
0.018647617689946695 -0.01479373670746602 0.011811752840154519
0.019473334875334848 -0.046507417122148884 0.045256205137162026
0.048836502603286834 -0.016810073558924606 0.05707105539541236
0.01911722250027723 -0.008869104177983466 0.00013731755150951633
-0.014101261399269966 0.012717652263975745 0.030327923088432174
-0.01342759437823768 -0.004993589457210901 0.005889946284350861
-0.00938022982110825 0.024151428726626328 0.029291996968512
-0.0117466124649735 0.02988117082257352 0.026734612550951307
-0.015275701468409416 0.014924981051530981 0.03011194456470901
0.014625809253165123 -0.017234854446553722 0.031849478358448556
-0.010136707226072478 -0.00784358108524696 0.02156490158701378
0.012891609254876 -0.013073535699110985 0.03387846423641507
0.0019927209630457086 -0.0038520220505262304 -0.03622455206844763
0.0083853957156726 0.00019855833113437284 -0.03400896206066202
-0.024441768905416904 0.02303320729534352 -0.023808486919982524
0.010410457702991706 0.010558912637160776 -0.03513082358184683
-0.00024295378810259096 -0.005340342853103351 0.007616559548870378
-0.015151915047695527 -0.009083367794614215 -0.0020591813639016673
-0.005265617979409499 -0.021280596844983995 0.0012696018304561153
-0.008216300596673642 -0.033353753967190924 0.046753553758812655
0.018692025148617192 0.006043450409717451 0.03607412063563492
0.021325644713602935 0.027874402003854437 0.0394524639408484
-0.0019454214967192032 -0.0026218565838657865 0.03984890358021805
0.03317299634865575 0.003390612818891083 0.02460561788735961
-0.016493044927244887 -0.020811534477344077 0.041355496147285155
-0.008103787838366442 0.010859132163694806 -0.001010817218462605
-0.002859559225914962 0.005887137121000395 0.032050266040156386
0.02480222520015489 0.0001837414319061988 0.02642703013677424
0.003563185720001918 -0.004004764196682086 0.01122065861077591
-0.009474515420547166 0.005038224695777177 0.00337204718646957
-0.004153283502512032 -0.021597289520638465 -0.006227594089567982
0.0323518763632078 -0.007139342437881401 0.008365977391190948
0.022697254564463684 0.006648050229858127 -0.04069181936989686
0.007789558075435535 0.003318016085968767 -0.01725030276627372
-0.0003256291553299227 0.005441676937344332 -0.010204783150058556
0.01813427744505574 -0.01838584455027408 0.02385480902791184
-0.007949260031516796 -0.012931175006263382 0.03364536341023682
0.021267061302829095 -0.003646220630579576 0.0283569044822537
0.026084795014090913 -0.009175239315386456 0.0352554057589479
-0.0002308519115799612 -0.020212394251729483 0.03808011023421788
0.03537838028759602 0.014816893206272063 0.03704812554926945
0.029269794765727296 0.009549378968366409 0.029356768369675025
0.03775436783107346 0.003621122209946748 0.034151646240404426
0.02655002385276816 -0.005867933100529229 0.02841321196680015
0.025292639255591276 -0.006144635322558408 0.010241230619732256
0.013320405706607067 0.012038340050278398 0.005573259214524742
0.028727876829833257 0.011306333800936635 0.033336338972525414
0.01840082179007075 0.016256180659530217 0.010758031292854785
0.010153829460428128 0.017620431966754852 -0.024479654531319412
0.02634029506917235 0.024668352098997797 -0.01988830148540628
0.021010052235815466 -0.0006825067738006359 -0.02520588668517114
-0.0025290549350039057 0.001023804164925089 -0.025331358611773096
-0.0052256570644495974 -0.0019969393263492407 -0.020728429664152965
0.027227562216622536 0.0020672244539174708 0.02478964226358479
0.02593348227065155 -0.014569634032395242 0.016069904246726063
0.03121835766074679 -0.012599906086159258 -0.010149217568938598
0.03607919718636232 -0.006021011052520639 0.006709639981870748
-0.0012434402463511207 -0.004169697867227846 0.008168321830542382
0.0005272341705477411 -0.008449810427592649 0.019293879180386487
-0.0006432884682257257 -0.0026814892465508557 0.02234330158520998
-0.0010578259109473007 -0.01710769531951296 0.024066360218943796
0.0016722404855011083 -0.015148541491088768 0.028591522858712755
0.010998222306368486 0.00020659419222551257 0.005395193555115945
-0.024903485574051826 0.006040068541305047 -0.003773798213745738
-0.020740043429267364 0.016892982188337867 -0.0008156321857019383
0.010461247443151309 -0.009637708634218246 -0.034054657329142805
0.0003137141297495643 0.0067556327612863145 -0.04012356807164797
0.025058069625787067 -0.012286831357353301 -0.041974115650821035
0.030724379125764607 -0.011780655221358443 -0.0410293568047522
-0.008182896680439653 0.0003309800228269427 0.040255561355658394
0.018080249115136043 -0.008499068479005582 0.037434985527261266
0.012664005704734464 -0.008138658285722179 0.035198929327662366
0.02105219548033393 -0.003607760588784521 0.02420683434336656
-0.016315953430135484 0.001675009393102155 0.0324612458942945
-0.020873272435489913 0.0034771458598171837 0.030165492897931818
0.005005837094198022 0.008648342452897882 0.009445159544644236
-0.02054699873379913 0.030542711491911487 -0.031833833816129725
0.007273308575670676 0.0033397007912872746 -0.030088328183912806
-0.01621018214685229 0.014256946961627322 -0.03107999435172942
-0.015771852440579586 0.019603031258009555 -0.04805125646565477
0.00788514878890246 -0.0041319998465718715 -0.02854304848844577
0.013650420597364987 -0.005328572522574604 -0.01957166326561191
0.011866962765388324 -0.0038571357649770303 0.020055834324070917
0.011382082353307961 0.0066956809608390505 0.007068103502003911
-0.017675074628333166 0.008002088537704235 0.0346018423854838
-0.0007245432834241911 0.018057793382202078 -0.022623218310865296
-0.012650848939047355 0.013489588402656247 -0.01994396565031856
-0.0038656736489713498 0.004865493856723136 -0.028708786323145254
-0.012026273848461907 -0.007949468563993497 0.044394728993868975
-0.00901835069585498 0.017243871989669958 -0.010725403635210464
-0.0154301402458729 0.00398191008866516 0.021668222950950118
-0.010285347052235001 0.0017699487314783086 0.020615146178258787
0.016726487160130064 0.0074326955631068255 -0.039469131293199344
-0.015463962206089511 0.01639358864750325 -0.04067912501675065
0.0447263509681357 -0.003795938196902935 0.020236945717391836
0.005567077413234089 0.05413769393340283 -0.027721598231419037
0.01931140025513911 -0.005929524448578173 0.024222252122358533
0.009070355444873451 0.01897415635992604 -0.013076281716447374
-0.009106786167538393 0.01001046446560944 -0.0005702649836293007
-0.00794896060420398 0.012234191885870143 0.009188272692744501
-0.007127506899190881 0.032508652488655816 0.021985514084309973
0.023322680850272552 0.00643925714098856 -0.019510326189805242
0.01574437774220191 -0.020306390522507697 0.018275491332936496
0.00820740492316662 -0.026191514651817766 -0.025082066760965572
0.002470069479898651 -0.003910808601554003 -0.009710512320798571
0.017350365230264925 -0.0115925235872079 -0.0005005158355391633
0.020726439068800603 0.013167524150150945 0.005284131335742518
-0.01169660898240841 -0.011094520115816717 -0.03839048722658363
0.005331150200198626 -0.00855780510945011 -0.009195335453116047
0.014247927756819318 -0.010279734198414136 -0.006505446540711494
0.010182935836850203 0.00273097029589302 0.01106957581856775
0.010465333127877492 0.0015236968551152039 -0.027555629508881952
-0.026092872328706312 0.015119851598578636 0.0013256001685251172
0.0035195792391001894 0.003515387170687453 0.0012646173881369098
-0.024331281137425442 -0.0026583712350296577 0.019109202315450685
-0.02303644092690707 -0.0015452469132892861 0.017447962776631427
0.002736237329912188 -0.022839194675440135 0.021068254833555303
-0.008940585835182117 -0.016624514810009868 0.02669453715999276
-0.0006816773604519185 -0.007416141821595285 -0.019628657274357107
-0.0015206609016690754 0.01030388368180229 -0.034152960966730976
0.0037312438824694057 -0.0006202260846441587 -0.038051165271201
-0.01674513808473091 0.017813888472615433 -0.01948081549168159
0.025454033664406885 0.01732904773943617 -0.033827602460482754
-0.01870501992451847 -0.015059180236733465 0.05093847771323664
0.00972843136287475 -0.01319022900257787 -0.013672947474022184
-0.01049670323010947 0.02571600378431911 0.03318544618265341
-0.007962921441435684 0.004211367434093722 0.015824816440628314
-0.005474284994183378 0.013040910211967292 0.018789059603605388
-0.015304099919949613 -0.00616682757163016 -0.032199976051705916
-0.009382383378011812 -0.006929125635399551 -0.032779008388655335
0.03716001610778764 -0.05690679474169894 -0.017743505873986504
-0.014811686158235403 0.0052803063144017835 0.026900552777173087
0.012809093239561373 0.005908092405114472 0.03029035214311891
-0.023428885183197117 -0.03407111614164532 0.05298566005262618
0.024225984524729523 -0.015214641371772721 0.03231077019060098
-0.01126010423884822 -0.0034339133395183638 0.003550210091094197
0.023405527094330657 0.008139573516163883 0.0038683848178849593
0.031304006044208105 -0.01434542380444904 -0.001889954148420614
0.019246321043362727 0.03258445516604911 0.0036457852589248997
0.02740196078749738 0.00012698410442950255 -0.02240838335131665
0.010574807896906431 -0.014444509631936206 0.015364306563915587
-0.024240629783729133 0.02921338244800335 -0.023359383295442772
-0.025053577180218924 0.019790055203610088 0.036132987766741634
-0.021485863656393756 0.008336401667005966 0.01471011831727057
-0.007617342557719864 -0.005144453481560513 0.02927042426486196
-0.003190095559521289 -0.0018444341652803298 -0.011185729189718647
-0.03094760351742228 0.011452750927430859 0.030402314100292094
-0.0022060607250740634 0.011985889521404756 -0.005339778381804327
-0.006397340800126216 -0.0048844152026761315 0.02578068137867245
-0.01607989692125412 0.008508591969940315 0.005217456361445405
0.0043662653873496795 0.002706533098942052 -0.010165324179809367
-0.004111689458802173 -0.011964836867932455 0.032832143675530105
4.79223008264757e-05 -0.003264331678915445 0.040665902642907426
-0.004059060061335861 -0.0032895380481035995 0.04251399816678214
0.027782363586923417 0.011184907534126473 0.015970765881868628
-0.013604125461128932 0.0011155038788178485 -0.019285743880990875
-0.004791579401516262 0.018641545636715044 -0.02167895894052706
0.004521254704103147 -0.0065355675636212945 0.02382752264625752
0.020216285212237433 -0.008958905854004138 -0.010801714339437747
0.0039866407655541084 -0.007456322057252405 0.027939022469004985
-0.026901761649917973 -0.0029251868933533446 0.028354757171919525
-0.015262992411867128 0.005381627383729947 0.038197091547103164
-0.014889895905413458 -0.016128545206480348 0.009519642653451225
-0.02030249470669009 0.0018461780401967459 0.04246965198708395
-0.01766524050881663 -0.021896763615961948 0.007239274463386073
-0.0046776905695638865 0.01572298171630935 -0.00021396640992538943
0.010100905467024029 -0.004748653842431188 0.03625263217116444
0.018704962763497965 -0.00715474127071778 0.002085660709636536
-0.00040743569704243266 0.012130981512650149 0.027719892612896705
0.029087042350477897 0.026611297355264112 0.031187989822462715
0.01430629985791719 0.003157952681153728 -0.03157523690888651
0.039086919448865706 -0.010596924194160884 -0.025067898689950786
0.01043767947483706 0.004894233734035679 -0.007006521382608993
0.015679732919313575 -0.0420380329355788 -0.028316299108325726
0.047823917387430984 -0.017290290905084795 -0.013779398588520222
-0.021039436175514913 0.028536202180508462 -0.012747457645065944
-0.012971989730292944 0.00045238732717996016 -0.02965934349210323
-0.006264186640655647 0.00048089797299123217 0.007108351135377623
-0.003802572894340698 -0.006313483328946576 -0.032886767527938635
-0.023699576123205415 0.025565313083101414 0.0017183365122490596
-0.018074859764123624 0.008467407403519025 -0.00763875565462759
0.007313370628036179 0.007155175335918221 -0.03733503569304843
0.004847534240604198 0.015377879421018368 -0.02263244749965689
-0.0023808902864587934 0.017532698510725746 -0.02963051304705958
0.027814984612837226 0.01482491637552395 -0.019777585067810837
0.03285150643608757 0.029753510587953117 -0.03993059779396903
0.021628633161106046 0.0638632291914446 -0.056104219055930084
0.013715678257009707 -0.007280120129453051 0.024254101712261788
0.0277121716032493 0.027192428439653304 -0.019148322340242375
0.04157471880894997 0.014950274905992792 -0.012387218526474767
-0.013267495776682712 0.0030967543842748166 0.006921469509492481
-0.003167122845823043 0.00878100162921916 0.00747840785829442
0.0008547752330146438 0.056426737018980454 -0.059832433187806906
0.025748704177276403 0.024150141751033864 0.01118485675712187
-0.03217829439236365 0.0017457350529659005 -0.001705083195411024
0.02445143930148717 0.03027750550569337 -0.031439235145512064
-0.0187648340562343 -0.03947933531839584 -0.01846903182737647
0.004696003038992162 0.03392571979078327 -0.04621497433177938
0.006648349053174453 0.0007053029428129965 -0.016180874634892543
-0.024036623452916645 -0.004833126655307117 0.04418920030841118
0.00037223821677349054 -0.017824830906333668 0.004967280515744138
0.00543106885504552 -0.004245131982093511 -0.010388182573996974
0.015895424563441077 -0.0013875657286126404 -0.02353136843058978
0.007651317308149626 0.005610996051969605 0.016092091609265762
0.006096607505995554 -0.006299988945745956 0.006200217157462053
-0.031107317150096545 -0.021317932706575497 0.04608500311687329
-0.009444583679377554 0.007573163617024493 0.04457045711487754
0.015279900207843474 -0.003210189612804572 0.03289243453634373
0.02188105609785568 -0.030457449114693037 -0.025832171272967275
-0.002238648642651636 0.0019129582805268188 0.021978387011777113
0.008442427133839739 -0.007719588233844101 -0.0017447797715035764
0.01651181934224291 0.012091811979958761 -0.04111949192938317
-0.014749969327745211 -0.006276721544486257 0.0370002938504482
-0.004302128485585982 0.008036639888588217 -0.02436745320204146
0.001858603892786654 -0.010820711645866654 0.0188923471805815
0.011305474892701579 -0.007684823420721842 0.02598186686453082
0.00872147505881324 -0.0005937900867509712 -0.02197241930834137
-0.027783925457891663 0.010612360290028376 0.03189486476756353
-0.01944479444868029 0.02161682168403483 0.012022756607373007
0.011228551824694904 0.005570213917640621 -0.02378202952089864
0.0023313600526553807 -0.04241459755479781 -0.01080171919562149
-0.04265670985505657 0.005950974269464981 0.029063860511472934
0.006101578700506032 0.013595943599185634 -0.022483921295300326
0.007911691927175777 0.016023185836829112 0.002202799498362874
0.03611758741455866 0.005390581275636825 0.02701204192491339
-0.023620466868853565 -0.011604959750590475 -0.023983771944391885
-0.003584629647062832 0.010454109863972499 -0.023507772207718717
-0.01049756651912558 -0.002411968953350111 -0.022638429262798902
-0.00528205733904816 0.0069000508246680305 0.02242311532847103
0.007523509529872254 -0.017720120984318605 -0.012395806889622867
0.007562487125154426 -0.0005746309292429776 -0.01765288939305447
-0.009993818900883786 0.009723601875521628 0.01972693751253052
0.01869901970562559 0.008495693278780626 -0.007091743668887345
0.010408466912912475 0.0028002374762317187 -0.039485279861254934
-0.029389296433049248 0.010717317772605699 -0.025951136801462903
-0.0020264977921742883 -0.005168142812258134 0.007814599792338499
-0.001432280034535986 0.012033874985046013 0.03429005787211721
-0.006082887840041795 0.004892990559507421 0.020679726561645552
-0.004197436604828512 0.027573833978622144 0.05028452043598895
0.028955322457374456 -0.01866448629192739 -0.03678561244212287
0.018403418152671977 -0.0027059418610104633 0.006525164307813527
-0.016161347714759144 0.0033866589314114023 0.017895524438613544
0.01833729139601943 -0.018518401294937446 -0.014493626989887843
0.004921059486258706 -0.007344413421315447 -0.04414870845201104
0.01054846006718271 -0.006810091990523871 -0.04177693999089889
-0.01439157058590307 -0.013859030492134024 0.0424765340425586
-0.030313098135677573 0.01602102859653416 0.011121356853331701
-0.011681339185598218 -0.013634922502942718 -0.013322497251522514
-0.029190490055246234 -0.0163498134161367 -0.018432399309981567
0.0015647362867446711 0.006839725892009564 0.007055856754050782
0.020059493824348906 -0.004374194998157229 -0.02784869919948486
-0.007563875849435187 -0.006785279074296058 0.00035352731289788535
-0.01450142743752423 0.0128435820678013 0.02095537214524467
-0.00786537697689549 0.00048020912651125833 -0.012078704564943673
-0.007588506827397106 0.00013727893172089825 -0.031698880956528154
-0.0004155850518632473 -0.008266433026246477 -0.03500150300974032
0.007212255442701006 -0.004129993620737931 0.01178461238441594
0.001966165316632668 0.022680901351696398 0.024136323983671965
-0.0005722711876395058 -0.0009285790436290848 0.024784049879146872
-0.009095683666439185 0.007680299796352699 -0.026597179473853916
-0.022111075532284807 -0.0119384131926827 -0.002979920033699538
-0.015838725479080745 -0.00799446186699139 -0.018467001035747277
-0.025680520602008133 0.0023324083129173884 0.033459298878401614
0.0018264242221744465 -0.002374994975446037 0.028757495006878752
-0.004306288500593969 -0.0017912134220134598 0.004078107562260209