# vtk DataFile Version 2.0
Really cool data
ASCII
DATASET UNSTRUCTURED_GRID
POINTS 584 double
-1.0 0.0 0.0
-0.9600374798207896 -0.027590413451835553 0.04
-0.9589620457797374 -0.028177574718636023 0.0
-0.9553815213922792 0.019675326217199102 0.04
0.6719637381218919 0.02110482676547816 0.0
0.6414775595248179 0.020020515529780993 0.04
0.6571281419012174 0.06 0.0
0.6240641012293764 0.022292119262118645 0.0
0.687851041884645 0.021313940245698455 0.04
0.7030120427199962 0.06 0.04
0.657128141901218 0.06 0.04
0.7030120427199952 0.06 0.0
0.6885310613992013 -0.0196061899732657 0.0
0.6720046167250797 -0.020579604775701428 0.04
0.6407079554435648 -0.019738458112036637 0.0
0.7171469290115033 0.021165332718839136 0.0
-0.7921016077200962 -0.06 0.04
-0.7604373514312079 -0.019298436119384588 0.0
-0.7479973317145423 -0.06 0.04
-0.7479973317145417 -0.06 0.0
0.7030120427199962 -0.06 0.0
0.7030120427199952 -0.06 0.04
0.6571281419012174 -0.06 0.04
0.7479973317145417 -0.06 0.04
0.7325903506195701 -0.020274227246539274 0.0
0.7176321617908783 -0.019839353713154383 0.04
0.7604373514312079 -0.019298436119384588 0.04
-0.8488906624897727 0.019856366527450334 0.04000000000000001
-0.8052789150181434 -0.019306901564895652 0.0
-0.805541091654972 0.020469431563422978 0.04000000000000001
-0.8203038938742353 -0.020636147377884773 0.04
0.897529295217204 0.022569895749215793 0.0
0.8488906624897727 0.019856366527450334 0.0
0.8569454102823642 0.029774901726562965 0.04
0.8777357995360431 0.06 0.0
0.9553815213922792 0.019675326217199102 0.0
0.95349853104827 0.02147987272312249 0.04
0.9103536180674616 -0.021283841161765512 0.0
-0.5450807564691462 -0.01715484187473429 0.04000000000000001
-0.5372746904547943 0.02439300391790418 0.04
-0.49049502097572617 0.000359712426279548 0.04000000000000001
-0.5409244119327052 -0.005150142234760652 0.0
-0.48901428549955095 -0.02776609156780287 0.019771763033692314
-0.4642419910175897 -0.06 0.04
-0.43891524330526177 8.673617379884035e-17 0.04000000000000001
0.7479973317145423 -0.06 0.0
0.9600486361512215 0.06 0.04
1.0 0.06 0.04
1.0 0.06 0.0
0.9192992165657531 0.06 0.0
0.7479973317145423 0.06 0.04
0.7309057796957548 0.02177174945441851 0.039999999999999994
0.7479973317145417 0.06 0.0
0.7613659684934695 0.020945326906433456 0.0
0.7736855084518748 0.020914979208800512 0.04
-0.8570647961856006 -0.015388027432140593 0.0
-0.8569454102823642 0.029774901726562965 0.0
-0.8649535140731797 -0.02016838668923704 0.039999999999999994
-0.1726925416005594 -1.214306433183765e-16 0.039999999999999994
-0.22806385632140147 1.0755285551056204e-16 0.039999999999999994
-0.2006519843784229 0.06 0.0
-0.22806385632140147 -1.1796119636642288e-16 0.0
0.438611990705585 -5.252150912499892e-05 0.04
0.41358849559293387 -0.06 0.04
0.4135884955929341 -0.06 0.0
0.4642419910175897 -0.06 0.0
0.4782715374234063 0.0302584611690398 0.019894876072988572
0.513903464641242 0.06 0.0
0.49049502097572617 0.000359712426279548 0.0
0.46424199101758934 0.06 0.0
0.46424199101758934 -0.06 0.04
-0.8164681441220105 0.022269284396602723 0.0
0.48912437490067595 -0.00041996788971368666 0.04
0.4642419910175897 0.06 0.04
-0.8353421249080566 0.06 0.04
0.8649535140731797 -0.02016838668923704 0.0
0.8973163514988121 0.02144006532192878 0.04
0.5625923446839085 0.06 0.04
0.6103276788742331 0.06 0.0
0.5943416245309461 0.018901239582525348 0.04
0.5790918012159274 0.021628695864523574 0.0
-0.593631917725493 -0.01946781888421301 0.04
-0.6103276788742336 -0.06 0.04
-0.6407079554435648 -0.019738458112036637 0.039999999999999994
-0.6264545933043166 -0.021459100211208025 0.0
-0.6103276788742331 -0.06 0.0
-0.6103276788742336 0.06 0.0
-0.6240641012293764 0.022292119262118645 0.04
-0.6414775595248179 0.020020515529780993 0.0
-0.5943416245309461 0.018901239582525348 0.0
-0.5790918012159274 0.021628695864523574 0.04000000000000001
-0.5625923446839077 0.06 0.04
-0.6103276788742331 0.06 0.04
-0.5625923446839085 0.06 0.0
-0.7325903506195701 -0.020274227246539274 0.039999999999999994
-0.7176321617908783 -0.019839353713154383 0.0
-0.7309057796957548 0.02177174945441851 0.0
-0.7736855084518748 0.020914979208800512 0.0
-0.7613659684934695 0.020945326906433456 0.04
-0.6571281419012174 0.06 0.04
-0.6719637381218919 0.02110482676547816 0.039999999999999994
-0.7030120427199952 0.06 0.04
-0.687851041884645 0.021313940245698455 0.0
-0.029521960903255984 -0.06 0.04
-0.05860957814939871 -6.938893903907228e-17 0.039999999999999994
-0.05860957814939863 5.898059818321144e-17 0.0
-0.08769719539554167 -0.06 0.0
-0.08769719539554144 -0.06 0.04
-0.2823507532564078 -5.204170427930421e-17 0.04
-0.25547572826437986 0.06 0.04
-0.25547572826438003 0.06 0.0
0.38751191920162714 6.938893903907228e-18 0.0
0.3352618020299945 -3.469446951953614e-18 0.0
0.36192316205531716 0.06 0.04
0.3619231620553172 0.06 0.0
-0.36192316205531716 0.06 0.0
-0.335244821032008 -1.1796296425746478e-06 0.0
-0.3352618020299945 -3.469446951953614e-18 0.039999999999999994
-0.38745316199969926 -7.894682722445895e-06 0.0
-0.3619231620553172 0.06 0.04
-0.3092257782484355 0.06 0.04
0.28235075325640757 5.551115123125783e-17 0.039999999999999994
0.30922577824843556 -0.06 0.0
0.335244821032008 -1.1796296425746478e-06 0.04
0.3092257782484355 -0.06 0.04
0.36192316205531716 -0.06 0.0
0.38745316199969926 -7.894682722445895e-06 0.04
0.3092257782484355 0.06 0.0
-0.38751191920162714 6.938893903907228e-18 0.04
-0.28235075325640757 5.551115123125783e-17 0.0
-0.30922577824843556 0.06 0.0
0.6103276788742336 -0.06 0.0
0.593631917725493 -0.01946781888421301 0.0
0.6264545933043166 -0.021459100211208025 0.04
0.4889627886584896 -0.027603176797077415 0.020155725176282127
0.583287522480325 -0.023728770665855194 0.039999999999999994
0.5450807564691462 -0.01715484187473429 0.0
0.5409244119327052 -0.005150142234760652 0.04
-0.48912437490067595 -0.00041996788971368666 0.0
0.3619231620553172 -0.06 0.04
-0.657128141901218 0.06 0.0
0.9600374798207896 -0.027590413451835553 0.0
1.0 0.0 0.04
0.9589620457797374 -0.028177574718636023 0.04
0.5625923446839077 -0.06 0.04
0.5625923446839085 -0.06 0.0
0.7766984080639845 -0.02052537972713625 0.0
-0.438611990705585 -5.252150912499892e-05 0.0
-0.583287522480325 -0.023728770665855194 0.0
-0.9600486361512215 0.06 0.0
-0.95349853104827 0.02147987272312249 0.0
-0.9192992165657539 0.06 0.0
-0.9192992165657531 0.06 0.04
-1.0 0.06 0.0
-0.14473309882269625 -0.06 0.04
-0.14473309882269605 -0.06 0.0
-0.11621514710911887 -1.214306433183765e-16 0.0
-0.17269254160055947 1.1796119636642288e-16 0.0
-0.14473309882269625 0.06 0.0
-0.11621514710911884 1.214306433183765e-16 0.039999999999999994
-0.8353421249080566 -0.06 0.0
-0.8353421249080575 -0.06 0.04
-0.8973163514988121 0.02144006532192878 0.0
-0.897529295217204 0.022569895749215793 0.04
0.11621514710911887 -1.214306433183765e-16 0.039999999999999994
0.05860957814939871 -6.938893903907228e-17 0.0
0.05860957814939863 5.898059818321144e-17 0.039999999999999994
0.08769719539554144 0.06 0.04
0.6103276788742336 0.06 0.04
0.5139034646412424 -0.06 0.0
0.9096368506350345 -0.020963842829632554 0.04
0.805541091654972 0.020469431563422978 0.0
0.8052789150181434 -0.019306901564895652 0.04
0.8203038938742353 -0.020636147377884773 0.0
0.08769719539554144 -0.06 0.0
0.08769719539554167 -0.06 0.04
0.9192992165657531 -0.06 0.04
0.8164681441220105 0.022269284396602723 0.039999999999999994
-0.9103536180674616 -0.021283841161765512 0.04000000000000001
-0.8777357995360431 -0.06 0.0
-0.9096368506350345 -0.020963842829632554 0.0
0.8570647961856006 -0.015388027432140593 0.04
0.7921016077200956 -0.06 0.04
0.8353421249080566 -0.06 0.04
0.7921016077200962 -0.06 0.0
0.4135884955929341 0.06 0.04
0.43891524330526177 8.673617379884035e-17 0.0
-0.7921016077200956 -0.06 0.0
-0.08769719539554144 0.06 0.0
0.14473309882269605 0.06 0.0
0.1726925416005594 -1.214306433183765e-16 0.0
0.11621514710911884 1.214306433183765e-16 0.0
-0.029521960903255984 0.06 0.0
0.0 0.0 0.0
0.17269254160055947 1.1796119636642288e-16 0.04
0.14473309882269625 0.06 0.04
0.0 0.0 0.04
0.2006519843784229 0.06 0.04
0.22806385632140147 -1.1796119636642288e-16 0.04
0.22806385632140147 1.0755285551056204e-16 0.0
-0.6720046167250797 -0.020579604775701428 0.0
-0.7030120427199962 -0.06 0.04
-0.7030120427199952 -0.06 0.0
0.25547572826438003 0.06 0.04
0.30922577824843556 0.06 0.04
0.25547572826437986 0.06 0.0
-0.02952196090325599 0.06 0.04
0.2006519843784232 -0.06 0.04
0.14473309882269605 -0.06 0.04
0.2006519843784229 -0.06 0.0
0.14473309882269625 -0.06 0.0
0.2823507532564078 -5.204170427930421e-17 0.0
-0.36192316205531716 -0.06 0.04
-0.41358849559293387 -0.06 0.0
0.5372746904547943 0.02439300391790418 0.0
0.5139034646412424 0.06 0.04
-0.5139034646412424 -0.06 0.04
0.41358849559293387 0.06 0.0
-0.7171469290115033 0.021165332718839136 0.04
-0.7479973317145417 0.06 0.04
-0.7030120427199962 0.06 0.0
0.08769719539554167 0.06 0.0
0.029521960903255984 -0.06 0.0
-0.02952196090325599 -0.06 0.0
0.02952196090325599 -0.06 0.04
0.02952196090325599 0.06 0.0
0.029521960903255984 0.06 0.04
-0.47805793986482265 0.03008719549728311 0.01940109733029794
-0.4642419910175897 0.06 0.0
0.6103276788742331 -0.06 0.04
1.0 -0.06 0.04
0.9600486361512205 -0.06 0.04
0.9600486361512215 -0.06 0.0
-0.3092257782484355 -0.06 0.0
0.877735799536044 -0.06 0.0
0.8777357995360431 -0.06 0.04
-0.41358849559293387 0.06 0.04
-0.4135884955929341 0.06 0.0
1.0 -0.06 0.0
1.0 0.0 0.0
-0.14473309882269605 0.06 0.04
-1.0 -0.06 0.0
-0.9600486361512215 -0.06 0.04
-1.0 -0.06 0.04
-0.7921016077200962 0.06 0.0
-0.9192992165657531 -0.06 0.0
-0.9600486361512205 -0.06 0.0
-0.7921016077200956 0.06 0.04
-0.7766984080639845 -0.02052537972713625 0.04
-0.5625923446839085 -0.06 0.04
-0.5625923446839077 -0.06 0.0
-0.877735799536044 -0.06 0.04
0.7921016077200962 0.06 0.04
-0.3619231620553172 -0.06 0.0
-0.7479973317145423 0.06 0.0
-0.8777357995360431 0.06 0.04
-0.4135884955929341 -0.06 0.04
-0.46424199101758934 -0.06 0.0
0.513903464641242 -0.06 0.04
-1.0 0.0 0.04
-0.877735799536044 0.06 0.0
-0.30922577824843556 -0.06 0.04
[...]
POINT_DATA 584
VECTORS displacement double
-0.000298854768444914 -0.010720966159519089 0.004086340272178285
0.008281832671903966 0.0008757604501725796 0.0036246437773085416
0.008703913108197823 6.205598025665379e-05 0.005086252055064538
-0.008994895448031141 0.004566865436726717 0.0040985363113494044
-0.005397019139664099 -0.007111928194133308 -0.00010894064054557894
-0.0024002451398061975 0.008148957994604626 -0.0034742038360083363
0.008724041446877962 -0.0005757069676163459 -0.004351770963787924
0.0011752916623488684 0.0015724719000548889 0.0007283496187897402
-0.002498410932144302 -0.006181295844105287 0.00030295698446079777
0.004208046379941373 -0.008574283932972986 0.0022703703722275945
0.007308103977140305 -0.0038150915390473814 -0.0015210253584766185
0.005117925474064917 -0.005906116354271613 -0.0008512873055610233
0.001626888233920294 -0.002813091356433554 0.000973794638434963
0.0022403780454578817 -0.003189016045479408 0.002583753792077547
-0.0031490779207801116 -0.015265015178014082 0.0016319075445587984
-0.001324758473697366 0.002159073249407852 -0.00043510401894288346
-0.0020318071606922755 0.024162293212766386 0.006253885895273142
0.01742326179134988 -0.004224137674465027 0.004757461710198883
-0.0013722538492598134 -0.025726181321396598 0.006214916510897795
-0.009077243958625261 -0.015399724001972873 0.004469670679189289
0.00444640527939063 -0.0037773575435009594 0.0023587591740609048
0.007679307830657544 -0.003206922660013758 0.003953343874261618
0.0012637366116986185 0.015121229547455019 0.008688154846482232
0.0005421417132685649 -0.004058274717799373 -4.6852366770859836e-05
0.0001991602290888075 0.00035642029704547267 0.0013512127534942382
0.0021857967405206975 0.0028197851206838483 0.0005283404425426632
0.00014851349854926144 -0.0053958352704765395 -0.0004590060318407272
-0.006762387768734868 0.00041040839646259286 0.0013961454289497612
0.007509449271498404 0.002840624145259591 0.002897009647854675
-0.005267829794929742 -0.0011117939624380618 0.0018069014706049394
0.006707751263032709 0.0034616792948162873 0.004267109019687566
-0.0019009732270908633 -0.0028520550975121113 -0.0007648929653274542
-0.003760035074008278 0.0008072640329570928 -0.0010352146495857984
-0.0025249126121064955 -0.004634953971338361 -0.0007239179882557085
-0.005340474816715743 -0.0010191079624750309 -0.00015820236369999184
0.0013152418138749353 0.0004404491927277387 -0.0004417073558032889
0.0007456037209801173 0.0008003090047561578 -0.000905790683187453
0.0009566391005174068 -0.0024200443407548294 -0.00047010946750738835
0.008346592342295152 0.034335326056784486 -0.009799705603390314
0.004590505378581473 0.03688469505267509 -0.0004321507679105718
-0.006726468574885204 -0.012403780363587672 -0.0004554914584396166
-0.004261269191532376 0.03130062198268042 -0.015666607052383943
-0.06987679400650576 0.03528458163729776 -0.012755324761592189
0.038228721809755985 0.20872944280557673 0.019123068309324514
0.012680732575175187 -0.10572484215021373 -0.0019285981212726264
0.0011094798139466909 -0.003123473777528112 0.0004611282406523304
-0.005919177320253447 0.0006186385603179064 -0.000568049437925974
-0.005114786042118821 0.0057276336772155954 -0.0007167241222268893
-0.0051622379219246365 0.0050333192543541285 -0.000480107080523109
-0.00563594242049405 -0.004888011475075505 -0.00035988482165506857
0.005549762473843698 0.013909735031461158 -0.00038207454195351396
0.0002724888599692888 0.007869983829612077 -3.917838703211143e-06
0.005692562470965119 0.009334265930102083 -0.0009136747081927928
-0.004800112930881746 0.0012944840045858374 0.000773111062457699
-0.0042945346292479186 -0.0027350133397229886 -0.000732671595346952
0.006488628399028914 -0.003394155205459636 0.003172725877194176
-0.009837504811767218 -0.0042067234223188855 -0.0007251492679048338
0.006866903215859307 -0.001831539949775088 0.002474210314076217
0.0025829363404905655 0.0726788835568201 0.0022302010767480374
-0.01007202533687773 -0.07637919924721757 0.005035316867325147
0.0019004297894451073 -0.05587157275226582 0.0005203272960452328
0.003722782379433662 -0.0672371526266214 0.0026265822123121884
0.0011523015613799556 -0.014558447895124291 0.0006827869753263766
-0.005188242302298718 0.009523825383936842 0.000751464256281192
-0.007252572796019774 0.01018019323206326 -0.002795601543894813
0.003976888684672693 0.005222032251467198 -0.004040579888992771
0.0003112499318630318 0.011783873715663425 0.0010280232593926988
0.0037315490325641044 0.0016556841611900315 0.00044370049250094817
-0.00031305636446536536 0.009775276926889493 0.00033151889558972396
0.0003007537412475496 0.008531260391757087 0.0018559750287262253
0.004290121793565566 0.01082132381622289 0.0003984006553885433
-0.006950349179551457 -0.0012131372224285781 2.175919468782671e-05
-0.0012662415705050577 0.009341803510230192 -0.001907740612117217
-0.0006987948228732369 0.011985806376704804 0.0004422078498533852
-0.021833863963858103 -0.0011691425760079644 -0.0017632899483658066
9.242738195771951e-05 0.002602861299169483 -0.0006406127918232922
-0.000236193537906524 -0.002595280072793013 -0.0005034341703481624
-0.003163461392875781 -0.0017525815321929512 0.0017590944935556704
0.0032248514116884138 -0.0006053870540247706 -0.002800556592944051
0.0016525839224501716 0.014355214512332728 -0.0012579463942634839
-0.0019095814309400638 0.006581076022701584 -0.0019100485232455072
-0.005623000695148199 -0.03501427931795521 -0.010491775084935654
-0.0038807391341605275 -0.037910137380783 -0.01900385589349204
0.021585678270077017 -0.03426296955073527 7.356549786922378e-05
-0.0036462748461565625 -0.016506313361208592 -0.00037756864904815994
-0.01868410826981437 -0.026740851092446456 -0.020858737607034133
0.009304962324615118 0.022249085718375704 -0.015889788399583733
0.0014716519913240413 0.04410620723631338 -0.00916190778288947
-0.0055026912698896875 0.007727777909379203 0.003962547886916749
-0.02029952263395692 -0.01009213509273128 -0.002287630069553325
-0.00940781248046766 -0.019091566831299957 -0.0039536467161749534
-0.0025228476788470653 -0.049235886665578314 0.003247155420600092
0.006352853677421541 0.02590860755904009 -0.010019115547348257
-0.0005688737471290165 -0.03419917495344101 -0.02226491157570234
0.011507695724557088 -0.008951479259874346 -0.0011689774371343626
0.00800325683988323 -0.007368214563022005 0.012194712319070093
0.003160373496334152 0.012380672835721935 0.004919050270982307
-0.007269850119874882 -0.004287642941477307 -0.001520439127629677
-0.00561422784617016 0.0018238848633945082 0.0021368411079619146
-0.0066060313376891285 -0.007798963635977837 0.0057202348173510265
0.012998050282230417 -0.016903991066667422 0.009381610199639208
0.008345413337332427 -0.0009943535704868452 0.02040920968251505
-0.0037705670822192846 0.005936307463507277 0.008479330779501373
-0.015584904323725501 0.026749206078973655 -0.003872919246482388
0.005178197386038173 0.026171948912049683 0.005278956982113335
-0.0008835527102005166 0.02514191406957735 0.00178481573409333
-0.01083514830607985 -0.0044452874648748955 -0.0010850151232699083
0.00407236397023965 -0.007115020512219401 0.004437866855075676
-0.0041863839968873644 0.07721933915582281 0.0016265438259139482
0.04226798057863696 0.059195938621172735 -0.014129221710015712
0.049539271482901284 0.041925106510870926 0.0017705858951088255
-0.006195797668674103 0.01316055606658763 -0.00037874069978122957
0.0031755586586299464 -0.017724315351527787 0.001524019615060746
-0.004130546971980651 0.020643549125746178 -0.0007957348411666485
-0.0023917245620850023 0.01808654220973851 0.0011265862187681296
0.04385151737559413 0.08118680325135418 0.000712655039728585
0.005302465148614605 -0.04346649266639274 -0.004850775507513797
-0.016478086493559856 -0.05702560842193248 -0.00032061095742703797
-0.008828944748197712 0.0742440110025725 -0.011853493520867116
0.00967315520726418 0.12001806975627102 -0.020244143735657857
-0.02629430586482326 -0.0791565412608288 0.01723018860552808
-0.0049473822246622464 0.01919222002237026 -0.00026326841822463904
-0.010672676992866087 0.011834375981569554 -0.0016172090711743282
0.0016121571741927955 -0.023244946019604317 -0.001208309884525081
-0.007816235430664677 0.020035242287157598 0.004391203705778872
0.004434420051472068 -0.011516064774523244 -0.0015856403427525771
-0.006743983130271728 0.01679192719149487 -0.000553991737603119
0.01250480510529357 -0.005910712946273418 0.0034046536670930116
-0.005820197890653041 0.08099846397445402 -0.0073318114583037
0.005853514892727164 0.06289672109198803 0.0018131036487625382
0.0032249765201850943 -0.057074471399215336 0.002152502911812654
-0.012045934868592675 -0.01954575109796042 0.001372544973819616
0.0071366375799959275 0.009412244811401802 0.0006513223987341982
-7.98424944965285e-06 -0.028312439980921752 -0.000491139274138601
0.006630902355263396 0.00562892803727413 -0.0022975294441516733
0.007259736521861371 0.02269251138249912 -0.0009310582122791456
-0.001835366289557269 -0.00296355707831287 -0.003527104859441252
-0.003003909306278893 -0.010526076101528694 -0.00021567368769524346
-0.004292372379155561 0.025524856204495027 -0.01480127938681568
0.00748895761602667 -0.01348321500008571 -0.002375834320152901
0.006389500568758391 -0.00714789143409556 0.0013493829533313868
0.0004522396868806047 0.0002740297927839908 3.833572498115116e-05
0.0007552183549492105 -0.00015514460734189064 -0.0009040363230738989
0.00013388487745438646 0.0011053688818526996 -0.00026298200703771436
0.0051984073658785926 0.023363990211980108 0.001998436002387535
0.002419783049348994 0.013405431942734964 0.002708767509122425
-0.0004661529346528495 -0.002233424988829916 -0.0006462862652308241
0.01794736939600543 -0.09447292645765708 -0.011485394778037542
-0.012193891572108472 -0.005519789146837327 -0.016263895259488632
-0.026079634519759958 -8.454106371659856e-05 0.0014269532475221416
-0.010848476159912867 0.0013374014880225373 0.002277196191573023
-0.024711100830043034 -0.0076320375749738085 -0.000246192700976273
-0.024342055325051657 -0.012930851017168551 0.0027352670197849354
-0.02595577183222871 -0.009999333075626662 0.002406622380612481
-0.02886268848133747 0.01681473812169641 0.0003444516637582577
-0.040792433441291354 0.005359927232404536 0.010003209698820717
-0.008469840575153096 -0.04107049421055781 0.0027353780410140642
0.008125774993613178 0.05916719619859801 0.004450720710094394
0.0406060717867953 0.05655551965932864 0.0074217693655441435
-0.015178132753785661 -0.05217539244724708 0.004077065530519986
-0.0039956948051997 -0.0025082374768722153 0.00426413993926798
-0.0007565887855472131 -0.0036416356493901244 0.004199916918061646
-0.008618282110762886 -0.0036167722590787856 0.0014521754550596698
-0.00587916693104257 0.00021690233054565277 0.0009400634035785395
-0.0005574311236909803 -0.019240194868627825 -0.0011333669239440205
0.002425372558276696 0.014063870327600972 -0.0015541202473277466
0.002899983604541226 0.016335917957301483 0.0011681474444308585
0.014077874795975342 0.01790275256983834 -0.0018457777984477075
0.00440636986978802 -0.003498209538150868 -0.0007802271456652035
-0.0030379343879015468 -0.011025814977490696 -0.003708231795411775
0.000468162702529168 -0.002778911036560662 -0.0003077523774179828
-0.0017959449922164883 -0.002478964591559659 6.0537917892394714e-05
0.00045383503936117733 -0.001421088796762467 0.0005485331396041422
0.0009108405665156253 -0.0006780420341280814 -0.0005288204293978542
-0.0021536332481646393 0.010063453901937296 -0.0017165214006237854
-0.008396730617103438 0.01204922082999502 0.00015744998427021887
0.0011580769327055225 -0.0022724076747188643 -0.00023147974199900167
-0.0005978284240019627 -0.0007002039348738967 -0.000263682739966946
0.006867969210845635 -0.0019427621862091518 0.0038363881637790676
-0.0009526812819581469 -0.005946171018790943 0.00575067322481364
0.006672150867389 -0.0037935780609760546 0.004259297226831538
2.537184594313977e-06 0.0038792506009407935 0.0005534046867406539
0.0012652784558416393 0.0020311036883665203 4.740792387687113e-05
0.0018556837166944463 0.0010457611927460967 0.00023543711866189142
0.0019769366984652447 5.669395295400832e-05 0.0004630503436451407
0.004030758813874352 -0.018032034172117253 0.0025954389556412448
0.0024387561358762016 -0.009035472004038278 0.0016759552286509812
-0.0033385602099160966 0.01612835881008993 0.0056952646331697235
0.004561391549585978 -0.04246644421450898 0.007713567811802648
-0.0047666408042029325 -0.005970524741951422 -0.0011884061142986018
-0.0015143302337142738 0.017526015443561437 0.0011017317342866455
0.0003397216480053417 -0.0162410018521248 -0.00013303301504075365
0.021886415219550252 0.031963845607805866 0.005535215308129688
-0.0014655449168917915 -0.01558121549611044 -0.003966085032418799
-0.003489928924830853 0.02327145828025127 0.0021821372365596284
-0.007688853235813233 -0.008062067206639443 0.004073281854352079
-0.0043691876167638345 -0.029485432367355683 0.00299804889645554
0.008271063379872115 -0.007000507283900587 0.0031059649079858346
0.006089980289345307 -0.0138191963401339 0.0009681330090521529
0.004908520763905685 -0.0106651689525383 0.0020949580137886318
-0.014600176608989896 0.018565123390715404 0.002212935210685326
-0.018045427478084186 -0.043608931790966525 0.012396892559461104
-0.03285307048100276 -0.025289394605796163 0.002208109894420011
-0.0010307367088953862 0.01043852032017392 0.0015892301903983536
0.012353462997049956 -0.0072923281088850605 0.0039661727917861345
0.0017308163690287386 0.010474187004640314 0.002225639286827456
0.014716487820677722 0.05210869837246307 -0.007340485928918668
-0.001996867037680705 0.020125261208399504 0.0034978402994313347
0.009164604677902944 -0.018443078193348686 -0.004374823137361414
-0.0038782807197444073 0.01733722096837281 0.005265013006934266
0.008771793330633002 -0.013025540190214112 0.002121492947853821
-0.004618291161573601 0.01818133114054192 0.000805916528915236
-0.012564577008743284 0.0975398735545887 0.0010160121910027522
0.037109455433235676 -0.12768699347579124 -0.014229038148632285
-0.0007460352922520045 -0.0039026016222383354 0.001781453417787488
0.0020174367424086147 0.0034064957542930775 0.0016325703284474982
-0.016542825965440686 -0.08920822534485028 -0.03835623584249331
0.0050435125123328125 -0.013919303240150465 0.002705019405643702
-0.005261920778419494 0.044636735232936264 0.009878763372929453
-0.02446362079941038 -0.02830670846718298 0.0009451663051183708
0.00790764642760188 0.008768073474872318 0.005402995424138581
0.009297475258324995 0.017640444498527412 0.0011011062809826767
0.0018985260110820732 -0.007316419510238504 -0.002628109767440402
-0.018321332092297356 0.023541225674168737 -0.0037863841545958364
0.0038457422822227943 -0.0058926907806694144 -0.005184375393891116
0.002038596756414286 -0.02273382288124825 0.003856198122846859
-0.0017923870520809165 -0.03140088892961738 0.006358877946819744
0.020722154258159594 0.013270186216044807 -0.006921748529901518
0.029485873772782847 -0.005478035652320599 -0.01729225800317628
-0.013108468983990842 -0.025025253798780452 -0.0006797743550565872
4.36517171658708e-05 0.000457757887270087 0.0006968574480745343
0.0005773284389167624 -9.290818103466584e-05 0.0006276229129316247
0.0009539367142322108 -6.758162528614411e-05 0.00032778411344158107
0.011679416560675403 -0.05309319928334776 0.002867830742934471
0.0009308852090250913 0.0018515686701186434 -0.00013033308436659192
0.00019611044626165745 0.0024371147053930398 -0.00011189234673108611
-0.048472203172195215 -0.09654507840827752 -0.0026732778876283206
-0.0008517945327089939 -0.07527054630909964 -0.005076949169411486
0.0004372270796523919 -0.000319885931948061 0.000678305096109745
0.0009716539916342109 0.0002254739267006896 1.3101280652621419e-06
0.027073719210045786 0.08059483022691144 -0.004211052463413666
0.011247542534283514 -0.009273681728237308 0.005785977199915399
0.008940732761470166 -0.004955899090485715 0.0048941217920165335
0.01356037182954241 -0.008445712987749073 0.0051794791936792435
-0.024025419873395463 -0.0010085492465548966 -0.0029725623544682818
0.0014339935688594853 -0.004783978975916762 0.006326870709647502
0.006466492720642382 -0.004407950297987309 0.00610382063458929
-0.028510023642482615 4.382850484300762e-05 0.00012302659034558173
0.017655812718527047 0.0014817453691861517 0.0044890782265723465
0.0026325774925226924 0.05206411809721509 -0.009111462330207052
-0.0059242281689133236 0.03704079718836403 -0.012288676925003038
0.0019673819305693558 -0.005431034862008353 0.005109111444255662
0.00455148684639084 -0.0101514721575982 -9.983744047287402e-05
-0.022519562415743474 0.08100268689756948 -0.0012201334117675564
-0.01543597284661027 -0.016511493626342653 0.0038758613151872877
-0.020719396257128524 -0.0039153322375295955 -0.0036159943074051317
0.07410203451382714 -0.16673998112286423 -0.01313476851028132
-0.005914490397202088 0.11651864112097111 0.01194236286681107
-0.004441140212630129 -0.016252231572487615 -0.004251971277124868
-0.0004392280719533133 -0.010365102262116331 0.0028757619487006013
-0.02244147275540831 -0.005717359074380234 -0.0033647344866819407
0.03316892696557722 -0.05776124231755767 -0.005426019155383466
-0.012629554400179132 0.05227569599619122 0.005838292227218508
-0.002874305599792343 -0.06217687007555983 0.013870467545405153
0.002931030006057962 -0.02061280984606324 -0.00016806252615980718
-0.03618876470224121 0.034238386020821694 0.014441528682819036
-0.02518365651306573 -0.0009262791197788903 0.004760037846710309
0.003688147579330893 -0.0031613503038668512 0.0065722177803838825
0.028655465875143185 -0.011648753249498647 -0.018368863809137045
-0.015709316218485196 0.016449813563679486 0.008459187381946794
-0.005354466355695424 0.000772934868265545 -0.0004342609388851631
-0.02548629206166897 -0.008474017687854184 0.0033225311340726593
0.046780538211291946 -0.028304951225072386 0.005729979906008528
0.000993697278444824 0.08921547831426453 -0.044525799678833855
-0.0418564288793375 0.04788586304745857 -0.005412221070002587
-0.008268774340571246 0.003603425917433547 -0.0014265243858995486
-0.008891739926205173 -0.006969360927733695 -0.0020701039431227
0.005285963304517723 -0.027956321943594677 -0.0036012732472615605
0.002229576618217377 0.00018625619471917816 0.0001398932971607243
-0.029040777006268153 -0.042909108629480455 -0.0070542887782843065
-0.009766319843585693 -0.08290530947341486 0.01551262195991732
-0.02338871237453386 -0.0032581144318167927 -0.0025305262724397183
0.002153884768610143 0.008778244643009855 0.0036593833781358924
0.003405220449551801 0.014158967091995267 -0.000986562135873246
0.003754761491481173 -0.007732751467240445 0.0010838061605889886
0.0012742699344165276 -0.0027049111289017547 8.107312571170517e-05
-0.002070134197676314 -1.0501870032598837e-05 0.0005324924436326897
-0.040288704608226464 0.078488790549432 0.004933221705512122
-0.00024043730952072288 0.003855953054372349 0.00426733104329596
0.03059030743148545 -0.056120489486118225 0.0067369143401985005
0.0056483291785819865 -0.04313085052175434 0.006807616618295965
0.011561939401803768 -0.004960132637791672 -0.00043494358147336227
0.009265324616874899 0.0014835406719174585 0.004365653973779775
0.007216802492061114 0.0011077209972705014 0.0040858588649341915
0.010472462118870448 0.001034135291424771 0.005933053665386964
0.008619749456763099 0.006190219420917961 0.0023504264595647513
-0.0009692256490344068 -0.02739231367371339 0.0014966948386594906
-0.013935088186749631 -0.0002465065236938621 5.773898722533438e-06
-0.013169932460858175 0.00338601148651657 0.0018607300014202976
-0.02652725323228953 0.03778370718279327 -0.0014961905802008913
0.013491663083396645 -0.003256719569048607 0.008689351402673583
-0.012559771116618594 -0.06144071128593096 0.0017185309806080605
-0.013626089814368197 -0.05154334179105621 -0.0048566404450755074
0.012992172001090515 -0.04130639745496281 0.0026634449864181148
0.00809233309083244 0.04178165633092582 -0.0005915353882000573
0.0065760530089745296 -0.00232828135837172 0.004301393660402733