# vtk DataFile Version 2.0
Really cool data
ASCII
DATASET UNSTRUCTURED_GRID
POINTS 584 double
-1.0 0.0 0.0
-0.9600374798207896 -0.027590413451835553 0.04
-0.9589620457797374 -0.028177574718636023 0.0
-0.9553815213922792 0.019675326217199102 0.04
0.6719637381218919 0.02110482676547816 0.0
0.6414775595248179 0.020020515529780993 0.04
0.6571281419012174 0.06 0.0
0.6240641012293764 0.022292119262118645 0.0
0.687851041884645 0.021313940245698455 0.04
0.7030120427199962 0.06 0.04
0.657128141901218 0.06 0.04
0.7030120427199952 0.06 0.0
0.6885310613992013 -0.0196061899732657 0.0
0.6720046167250797 -0.020579604775701428 0.04
0.6407079554435648 -0.019738458112036637 0.0
0.7171469290115033 0.021165332718839136 0.0
-0.7921016077200962 -0.06 0.04
-0.7604373514312079 -0.019298436119384588 0.0
-0.7479973317145423 -0.06 0.04
-0.7479973317145417 -0.06 0.0
0.7030120427199962 -0.06 0.0
0.7030120427199952 -0.06 0.04
0.6571281419012174 -0.06 0.04
0.7479973317145417 -0.06 0.04
0.7325903506195701 -0.020274227246539274 0.0
0.7176321617908783 -0.019839353713154383 0.04
0.7604373514312079 -0.019298436119384588 0.04
-0.8488906624897727 0.019856366527450334 0.04000000000000001
-0.8052789150181434 -0.019306901564895652 0.0
-0.805541091654972 0.020469431563422978 0.04000000000000001
-0.8203038938742353 -0.020636147377884773 0.04
0.897529295217204 0.022569895749215793 0.0
0.8488906624897727 0.019856366527450334 0.0
0.8569454102823642 0.029774901726562965 0.04
0.8777357995360431 0.06 0.0
0.9553815213922792 0.019675326217199102 0.0
0.95349853104827 0.02147987272312249 0.04
0.9103536180674616 -0.021283841161765512 0.0
-0.5450807564691462 -0.01715484187473429 0.04000000000000001
-0.5372746904547943 0.02439300391790418 0.04
-0.49049502097572617 0.000359712426279548 0.04000000000000001
-0.5409244119327052 -0.005150142234760652 0.0
-0.48901428549955095 -0.02776609156780287 0.019771763033692314
-0.4642419910175897 -0.06 0.04
-0.43891524330526177 8.673617379884035e-17 0.04000000000000001
0.7479973317145423 -0.06 0.0
0.9600486361512215 0.06 0.04
1.0 0.06 0.04
1.0 0.06 0.0
0.9192992165657531 0.06 0.0
0.7479973317145423 0.06 0.04
0.7309057796957548 0.02177174945441851 0.039999999999999994
0.7479973317145417 0.06 0.0
0.7613659684934695 0.020945326906433456 0.0
0.7736855084518748 0.020914979208800512 0.04
-0.8570647961856006 -0.015388027432140593 0.0
-0.8569454102823642 0.029774901726562965 0.0
-0.8649535140731797 -0.02016838668923704 0.039999999999999994
-0.1726925416005594 -1.214306433183765e-16 0.039999999999999994
-0.22806385632140147 1.0755285551056204e-16 0.039999999999999994
-0.2006519843784229 0.06 0.0
-0.22806385632140147 -1.1796119636642288e-16 0.0
0.438611990705585 -5.252150912499892e-05 0.04
0.41358849559293387 -0.06 0.04
0.4135884955929341 -0.06 0.0
0.4642419910175897 -0.06 0.0
0.4782715374234063 0.0302584611690398 0.019894876072988572
0.513903464641242 0.06 0.0
0.49049502097572617 0.000359712426279548 0.0
0.46424199101758934 0.06 0.0
0.46424199101758934 -0.06 0.04
-0.8164681441220105 0.022269284396602723 0.0
0.48912437490067595 -0.00041996788971368666 0.04
0.4642419910175897 0.06 0.04
-0.8353421249080566 0.06 0.04
0.8649535140731797 -0.02016838668923704 0.0
0.8973163514988121 0.02144006532192878 0.04
0.5625923446839085 0.06 0.04
0.6103276788742331 0.06 0.0
0.5943416245309461 0.018901239582525348 0.04
0.5790918012159274 0.021628695864523574 0.0
-0.593631917725493 -0.01946781888421301 0.04
-0.6103276788742336 -0.06 0.04
-0.6407079554435648 -0.019738458112036637 0.039999999999999994
-0.6264545933043166 -0.021459100211208025 0.0
-0.6103276788742331 -0.06 0.0
-0.6103276788742336 0.06 0.0
-0.6240641012293764 0.022292119262118645 0.04
-0.6414775595248179 0.020020515529780993 0.0
-0.5943416245309461 0.018901239582525348 0.0
-0.5790918012159274 0.021628695864523574 0.04000000000000001
-0.5625923446839077 0.06 0.04
-0.6103276788742331 0.06 0.04
-0.5625923446839085 0.06 0.0
-0.7325903506195701 -0.020274227246539274 0.039999999999999994
-0.7176321617908783 -0.019839353713154383 0.0
-0.7309057796957548 0.02177174945441851 0.0
-0.7736855084518748 0.020914979208800512 0.0
-0.7613659684934695 0.020945326906433456 0.04
-0.6571281419012174 0.06 0.04
-0.6719637381218919 0.02110482676547816 0.039999999999999994
-0.7030120427199952 0.06 0.04
-0.687851041884645 0.021313940245698455 0.0
-0.029521960903255984 -0.06 0.04
-0.05860957814939871 -6.938893903907228e-17 0.039999999999999994
-0.05860957814939863 5.898059818321144e-17 0.0
-0.08769719539554167 -0.06 0.0
-0.08769719539554144 -0.06 0.04
-0.2823507532564078 -5.204170427930421e-17 0.04
-0.25547572826437986 0.06 0.04
-0.25547572826438003 0.06 0.0
0.38751191920162714 6.938893903907228e-18 0.0
0.3352618020299945 -3.469446951953614e-18 0.0
0.36192316205531716 0.06 0.04
0.3619231620553172 0.06 0.0
-0.36192316205531716 0.06 0.0
-0.335244821032008 -1.1796296425746478e-06 0.0
-0.3352618020299945 -3.469446951953614e-18 0.039999999999999994
-0.38745316199969926 -7.894682722445895e-06 0.0
-0.3619231620553172 0.06 0.04
-0.3092257782484355 0.06 0.04
0.28235075325640757 5.551115123125783e-17 0.039999999999999994
0.30922577824843556 -0.06 0.0
0.335244821032008 -1.1796296425746478e-06 0.04
0.3092257782484355 -0.06 0.04
0.36192316205531716 -0.06 0.0
0.38745316199969926 -7.894682722445895e-06 0.04
0.3092257782484355 0.06 0.0
-0.38751191920162714 6.938893903907228e-18 0.04
-0.28235075325640757 5.551115123125783e-17 0.0
-0.30922577824843556 0.06 0.0
0.6103276788742336 -0.06 0.0
0.593631917725493 -0.01946781888421301 0.0
0.6264545933043166 -0.021459100211208025 0.04
0.4889627886584896 -0.027603176797077415 0.020155725176282127
0.583287522480325 -0.023728770665855194 0.039999999999999994
0.5450807564691462 -0.01715484187473429 0.0
0.5409244119327052 -0.005150142234760652 0.04
-0.48912437490067595 -0.00041996788971368666 0.0
0.3619231620553172 -0.06 0.04
-0.657128141901218 0.06 0.0
0.9600374798207896 -0.027590413451835553 0.0
1.0 0.0 0.04
0.9589620457797374 -0.028177574718636023 0.04
0.5625923446839077 -0.06 0.04
0.5625923446839085 -0.06 0.0
0.7766984080639845 -0.02052537972713625 0.0
-0.438611990705585 -5.252150912499892e-05 0.0
-0.583287522480325 -0.023728770665855194 0.0
-0.9600486361512215 0.06 0.0
-0.95349853104827 0.02147987272312249 0.0
-0.9192992165657539 0.06 0.0
-0.9192992165657531 0.06 0.04
-1.0 0.06 0.0
-0.14473309882269625 -0.06 0.04
-0.14473309882269605 -0.06 0.0
-0.11621514710911887 -1.214306433183765e-16 0.0
-0.17269254160055947 1.1796119636642288e-16 0.0
-0.14473309882269625 0.06 0.0
-0.11621514710911884 1.214306433183765e-16 0.039999999999999994
-0.8353421249080566 -0.06 0.0
-0.8353421249080575 -0.06 0.04
-0.8973163514988121 0.02144006532192878 0.0
-0.897529295217204 0.022569895749215793 0.04
0.11621514710911887 -1.214306433183765e-16 0.039999999999999994
0.05860957814939871 -6.938893903907228e-17 0.0
0.05860957814939863 5.898059818321144e-17 0.039999999999999994
0.08769719539554144 0.06 0.04
0.6103276788742336 0.06 0.04
0.5139034646412424 -0.06 0.0
0.9096368506350345 -0.020963842829632554 0.04
0.805541091654972 0.020469431563422978 0.0
0.8052789150181434 -0.019306901564895652 0.04
0.8203038938742353 -0.020636147377884773 0.0
0.08769719539554144 -0.06 0.0
0.08769719539554167 -0.06 0.04
0.9192992165657531 -0.06 0.04
0.8164681441220105 0.022269284396602723 0.039999999999999994
-0.9103536180674616 -0.021283841161765512 0.04000000000000001
-0.8777357995360431 -0.06 0.0
-0.9096368506350345 -0.020963842829632554 0.0
0.8570647961856006 -0.015388027432140593 0.04
0.7921016077200956 -0.06 0.04
0.8353421249080566 -0.06 0.04
0.7921016077200962 -0.06 0.0
0.4135884955929341 0.06 0.04
0.43891524330526177 8.673617379884035e-17 0.0
-0.7921016077200956 -0.06 0.0
-0.08769719539554144 0.06 0.0
0.14473309882269605 0.06 0.0
0.1726925416005594 -1.214306433183765e-16 0.0
0.11621514710911884 1.214306433183765e-16 0.0
-0.029521960903255984 0.06 0.0
0.0 0.0 0.0
0.17269254160055947 1.1796119636642288e-16 0.04
0.14473309882269625 0.06 0.04
0.0 0.0 0.04
0.2006519843784229 0.06 0.04
0.22806385632140147 -1.1796119636642288e-16 0.04
0.22806385632140147 1.0755285551056204e-16 0.0
-0.6720046167250797 -0.020579604775701428 0.0
-0.7030120427199962 -0.06 0.04
-0.7030120427199952 -0.06 0.0
0.25547572826438003 0.06 0.04
0.30922577824843556 0.06 0.04
0.25547572826437986 0.06 0.0
-0.02952196090325599 0.06 0.04
0.2006519843784232 -0.06 0.04
0.14473309882269605 -0.06 0.04
0.2006519843784229 -0.06 0.0
0.14473309882269625 -0.06 0.0
0.2823507532564078 -5.204170427930421e-17 0.0
-0.36192316205531716 -0.06 0.04
-0.41358849559293387 -0.06 0.0
0.5372746904547943 0.02439300391790418 0.0
0.5139034646412424 0.06 0.04
-0.5139034646412424 -0.06 0.04
0.41358849559293387 0.06 0.0
-0.7171469290115033 0.021165332718839136 0.04
-0.7479973317145417 0.06 0.04
-0.7030120427199962 0.06 0.0
0.08769719539554167 0.06 0.0
0.029521960903255984 -0.06 0.0
-0.02952196090325599 -0.06 0.0
0.02952196090325599 -0.06 0.04
0.02952196090325599 0.06 0.0
0.029521960903255984 0.06 0.04
-0.47805793986482265 0.03008719549728311 0.01940109733029794
-0.4642419910175897 0.06 0.0
0.6103276788742331 -0.06 0.04
1.0 -0.06 0.04
0.9600486361512205 -0.06 0.04
0.9600486361512215 -0.06 0.0
-0.3092257782484355 -0.06 0.0
0.877735799536044 -0.06 0.0
0.8777357995360431 -0.06 0.04
-0.41358849559293387 0.06 0.04
-0.4135884955929341 0.06 0.0
1.0 -0.06 0.0
1.0 0.0 0.0
-0.14473309882269605 0.06 0.04
-1.0 -0.06 0.0
-0.9600486361512215 -0.06 0.04
-1.0 -0.06 0.04
-0.7921016077200962 0.06 0.0
-0.9192992165657531 -0.06 0.0
-0.9600486361512205 -0.06 0.0
-0.7921016077200956 0.06 0.04
-0.7766984080639845 -0.02052537972713625 0.04
-0.5625923446839085 -0.06 0.04
-0.5625923446839077 -0.06 0.0
-0.877735799536044 -0.06 0.04
0.7921016077200962 0.06 0.04
-0.3619231620553172 -0.06 0.0
-0.7479973317145423 0.06 0.0
-0.8777357995360431 0.06 0.04
-0.4135884955929341 -0.06 0.04
-0.46424199101758934 -0.06 0.0
0.513903464641242 -0.06 0.04
-1.0 0.0 0.04
-0.877735799536044 0.06 0.0
-0.30922577824843556 -0.06 0.04
[...]
POINT_DATA 584
VECTORS displacement double
0.006124908859999698 -0.013597855827066003 0.011070911265029277
0.005057335616112716 -0.015766981007457978 0.0062461824327567275
0.004618012123122531 -0.02013216095020078 0.01117172046457338
-0.0018171409482478887 0.004525673634175369 0.004442994289610625
0.01065860357551751 -0.01448262558869979 0.0015221844964857627
-0.00272872174583136 -0.03596787888135396 0.01913991671525755
0.0043018772304481735 -0.04053053673849751 0.006237287157660393
0.0002127922156878092 0.0006506067215710103 0.022475138054711654
0.010866423907840391 0.0028550284721449246 -0.001585519743841522
0.013539572777155598 0.005675683890204674 -0.030332267093722227
-0.0005771654451182194 -0.02623791652892781 3.5427557737143916e-05
0.01654658400659976 -0.012762632251921925 -0.021318879950968296
0.017097780405769692 0.012235031551444208 -0.002755174228304471
0.013507634795500045 0.005196433534001144 0.0049222731062880205
0.00777218043123477 0.00764411543127552 0.0037857511063457633
0.019248573476701145 -0.005264394966562526 -0.00719529637264671
-0.019661884308898765 -0.00244382174136148 -0.006188334134390768
-0.0007293167832055792 -0.001740600017414852 0.011669321795203252
-0.017619565026215527 -0.0007958814058278476 0.01882593587053362
-0.018546721787477204 -0.0023146440609403502 0.019185954774417355
0.015988823581846723 0.026140838876897523 -0.012755238615309769
0.018604747799724295 0.01988545350998123 -0.02668477846166311
0.005064338441550697 0.02390731941933746 -0.0027358744194738924
0.022479489872504723 -0.013794813487555901 0.005443982716258601
0.020747895445147997 -0.014359089299125891 0.0011864644284744063
0.016618824138248132 0.004910803908230291 -0.002890018575146876
0.008145725617967276 -0.03532431518889574 0.014317612378310843
-0.00087963235398914 0.004215386693040612 -0.018484665301748467
-0.002003955397197893 -0.0004965850852863852 -0.008998401222054319
-0.001475698311937368 0.00022900529375473902 -0.00914538636261329
0.0011049139138046722 -0.0035890103196293487 -0.017140762485444057
-0.011946576684981234 0.028291445197889124 0.009907642463201334
-0.014150314241813637 -0.034421243467767315 0.026801642002877792
-0.01739929599834599 -0.07380065652396885 0.017089036309616532
-0.10410362583306226 0.0025788653096111163 0.035673988266092214
-0.00436317014136925 -0.019391533077796067 -0.03391761979619821
-0.0033517091513974055 -0.028016025433368504 -0.02514557229528044
0.003743663387827244 0.027728240608441087 -0.007537896820259028
-0.0003998661845599281 0.004192217964856999 -0.03298404762252319
-0.002130713111433409 0.0007102794217262944 -0.02973379501682112
-0.0028471636601265075 -0.004428596054792153 -0.012403996572496625
-0.005516066964884395 0.004024609060240222 -0.0369383219839644
0.0017575886215404032 -0.0006980674641415368 -0.01635964981457542
0.01274892974352996 0.003594265283056991 -0.00013957012328392706
-0.004218272904955589 -0.0002942305684792649 0.016064406930419432
0.0254760277531022 -0.02501958026655315 0.013082718090401855
-0.08802088445158815 -0.03576571154407357 -0.019981576023622515
-0.07924226715746926 0.034212233153858414 -0.0454035155996509
-0.09267091551063313 0.04396129167213259 -0.04683812391707795
-0.08942807337779796 0.012341659578817023 0.0015032313248082613
0.032285595309702625 -0.001461843978831885 -0.03008552050965764
0.013358187734358035 0.0047072265051157315 -0.011405082807997121
0.03833748487224896 -0.034033285501167285 -0.01553568923223311
0.02606383298542929 -0.052882916038838934 0.014094210314757919
0.015396625725035813 -0.051526566796689176 0.0013580940225614395
-0.003962796308618851 0.009162150105912896 -0.018149535764594514
-0.0063207007554529565 0.01457011041726363 -0.012672233949647456
0.0006993384932593019 0.0034040689301990485 -0.02196437114292784
-0.017687460594135094 -0.011294815763380598 -0.003468399235167958
-0.01772542719093267 -0.0023701577202331816 -0.021699692394308235
-0.01035560114532095 -0.010152441041532114 -0.01872007361227785
-0.022696317959228024 0.0021377862803764014 -0.026740079279455795
-0.013837330009176675 -0.0074790960921885955 -0.0487716464374064
-0.017154433710862938 0.0053671208423815885 -0.05884250957755852
-0.013045736329849322 0.011820994860102541 -0.06384444845127485
-0.011471293039274695 0.011587711917216588 -0.04211199592578196
0.035965281513121575 -0.008273736222308927 -0.029381061393601506
0.065261770321024 0.005392853429227244 -0.032255460367608256
-0.004238534156961803 -0.012231660090507772 -0.030301612477755237
0.06835086075673039 -0.013145954258331913 -0.042798678518495066
-0.013098846507259584 0.019393337730315877 -0.026942815933536046
-0.004993565828363096 0.0036464619892202506 -0.010064576891286321
-0.009041661641726548 0.0033325958105047634 -0.02191235822268855
0.056412098928215394 -0.045945629318748106 -0.01728476948596189
-0.0036874576700418314 0.006420967293216264 -0.01183467507254749
0.013911323240899885 -0.028751724354259496 0.01660324813533185
-0.007654465815319936 0.023349534728933037 0.00601031530603679
0.05936937557998244 -0.06882986719654101 0.0004142703119265614
0.03824390356205854 0.026282918306054996 -0.002948727077155241
0.021017871802249684 0.0017656170207858458 0.03566421612808813
0.0008825199402185401 -0.02624164911148458 0.008263389462102061
0.0019410600299715902 0.007645990915660592 -0.019350269353751438
9.095043482377376e-05 0.008844517730513745 -0.012812811755680482
0.0009254208337248077 0.00604115696823027 0.006767668504010182
-0.007257268577861529 0.00946294659968999 -0.0030383173737525216
-0.00656043258410513 0.014738896289320343 -0.01594738598597834
-0.0015123798954306087 0.005852260771043372 -0.012255539597782677
0.003946970890474063 0.005361143381650964 0.00027443936851633547
-0.005158819251071477 0.0027350538051121153 0.005022069084568102
-0.007174558546815131 0.007969123637347716 -0.02156750756610653
0.00048648930841240347 0.0020903238742704094 -0.022123329188011704
0.0030650009211364957 -0.004165271507132987 -0.02413607983285119
0.008096938605905202 -0.00024045669174095307 -0.003306576341569831
-0.004174017106390205 -0.0007599681901506863 -0.032524445260794774
0.003097798316725083 -0.0017134150866705544 0.020093607451185654
-0.0009781941454152323 -0.009193845267699128 0.025975046692280606
0.0032538792386841496 -0.008215585032955369 0.017082749619141392
-0.003404940183970045 -0.0028434359698607907 0.002010272955058007
0.0013720923950014362 0.001122107041289784 0.006943184251203943
0.009717716673925066 -0.008044179956288389 0.016400305311803007
0.0013441595382464688 0.0034537449755445344 0.021095087796980817
0.008928994806700086 0.0018592657092746 0.02161808083377211
-0.002619168986289991 -0.002793450655587492 0.02197598303948822
0.011084343000278848 0.026384226149067203 0.010427402952930435
-0.012574554903984896 -0.006857443898736397 0.037108475806918534
-0.020279059923953204 0.002704271746497817 0.02008642812833992
0.0021803454420545845 0.033170860050586386 0.005236678840568455
0.007160456997432232 0.024016982582874775 0.0179364766327429
-0.015403236352247779 -0.0003630830750354512 -0.009587542849125018
-0.011891812458475365 -0.002399238672590719 -0.021518561823128887
-0.014577047868729686 -0.00205912697963439 -0.017714688399957552
0.0012434662999254824 0.029526913195373053 -0.04878728318454212
-0.011009745846509824 -0.013621338471518177 -0.00876272110896209
0.04105952122717562 -0.03013927296816308 -0.023087225347907827
0.04576092214337292 -0.026902831807919404 -0.030459421167454894
-0.010234768025706362 0.004528330186079611 0.03323492946844921
-0.016188288176007374 0.006017303561554556 0.01782860575653739
-0.010995665746243423 0.00055675675404263 0.018231503109554886
-0.01017233955598387 0.0018832390386504263 0.03201332575117372
-0.007391676879218911 0.0017342409456482049 0.029798579090344564
-0.009715732793234719 0.008062839775119077 0.008251727658049714
-0.0053295124552992235 0.012536625255479958 0.055077665586792016
-0.0015582234773468995 0.009085324209312177 0.027649740123135605
-0.004088639555495575 -0.006367160347400118 0.011092266957504024
0.001931835808825654 0.00239997328938638 0.02841874797333502
0.0009326758691173013 0.023953609759939817 -0.03627952151354978
-0.0028319863141585064 0.02522304631188602 -0.04042348597163942
0.037586528412556386 -0.03381287677698168 0.005147924062550612
-0.008037422192374 -0.000765871085464749 0.03290352672381883
-0.022484237895975447 0.0057271165968710465 -0.01092253765592072
-0.013987536947975878 0.011780848017962496 0.010131514897326685
-0.0209863685459951 0.06604876274803592 0.009484556967687782
-0.0004279163722433669 0.05298575927974585 0.0156370847469458
0.010122038708665232 -0.0018098447219318222 0.02810186808944993
-0.014833810694996943 0.0030385885709171083 -0.024483851693422924
-0.0032311484113788065 0.07181401462768149 0.039131735936063027
-0.006843260563778937 -0.045527033941032156 0.0028306361383022348
-0.021495711486785 -0.052804138572827515 0.01551214103877525
-0.005607494643619772 -0.006679315705287913 -0.018751914982626332
0.000513659338039572 0.011039435927748122 -0.03118454099038365
-0.0017256132227518079 -0.00697838806758296 0.011498598653605469
-0.00031593015708219845 0.003665666410343185 -0.04117081734136188
0.011284070638166424 -0.0012005883981647898 -0.046285642897774266
0.00860769550851084 0.0024700603440178715 -0.02617997143951574
0.012796027154810595 0.021290298826961693 0.03372712950107703
0.009921337217897794 0.014601844110609222 0.021574255578394468
0.02669788480338682 -0.030479040450971242 0.019448024584222758
-0.004450234662620676 -0.0022743280418327655 0.013796118540060985
-0.005947233004113495 0.01108441159191661 -0.02797859047133845
-0.01100585442258047 0.008971028352305583 0.01459293857503516
-0.004711929745987068 0.005305373046681653 0.010517988778062379
-0.012146539345963096 0.01897173458089074 0.005004477632806608
-0.006698035251243406 0.010670801904225875 0.0019366687994780579
-0.011164320227121171 -0.005611069415095336 0.018166295508029645
0.004010308807351978 0.013392351952953968 0.001561942966664944
-0.0013878186205894172 0.015841208053012475 -0.007105407516511139
-0.021292067311574427 -0.0027475080889574417 0.016460597219151375
-0.02204715486782683 -0.00558517230101778 -0.009438940838593644
-0.011071274137729672 -0.011990106550908635 0.009998055412505645
-0.01865792397309209 -0.014224000316690367 0.029805661732735977
-0.03187205054717996 0.0034945200224870865 -0.018843773772729604
-0.02797423333260544 -0.0001798574007701831 -0.02430401873906722
-0.0077272437663070525 0.013441760032128781 -0.0054494942831792995
-0.0029533291391004375 0.010617090405368136 -0.012290103625124931
-0.022238915442024214 0.007623710506049867 -0.019231531630323304
-0.019730495290490434 0.0016606252690612611 -0.03518452739047251
-0.014797798822541506 0.007583630162834336 -0.022184377456971608
0.0014132591180951656 -0.011171012766686198 -0.04267415242778692
0.03053798140883537 0.08196117447845047 0.017003976003224768
-0.01808519764503071 -0.015511896879742906 0.0037132984799655238
0.005778047937645161 0.0342383741399848 0.002357109274060418
0.010886486383651897 0.019255324851866186 0.03221764566097678
0.025440229775667643 0.019038376174968525 0.03159344420641344
0.0242719009776778 -0.004535702453734909 0.032351589133199035
-0.009043318070945385 -0.004888770967569362 -0.022744934091210173
-0.0005798207408109711 0.0034648673694478715 -0.020664053464732785
0.02179782791410812 0.013558087660961431 -0.004248059978736024
0.009190809346057606 0.016403987709891443 0.021074635049405002
-0.00015477907727846546 -0.004714886972094373 -0.009884011177514756
-0.038249446403672116 0.0061195967548698755 -0.01809166907067126
-0.006011391117792114 0.0005762042000452666 -0.004605118557452049
0.010997027217140829 -0.036989202998778566 0.030705338013568326
0.04019809450797922 0.028084973392207908 0.02809221026628612
0.02653188881687831 -0.02404981945063839 0.03447616185855577
0.041619096571795425 -0.0050546411887366196 0.044444994847137126
0.058867717735876006 0.023485152838045004 -0.05174717957092471
-0.0017324407324998611 0.00047654538690815724 -0.04939316351060883
-0.02396100249109644 -0.0008165183518285796 -0.00452457174222387
-0.01224735919409891 -0.02419178267120041 0.029991034107463174
0.01770733921214367 -0.026653918667349775 -0.039793974959443146
-0.022989953520474837 -0.0041483733700194095 0.007365767998058325
-0.01914802931126176 -0.0089105930541619 -0.02490830950626326
-0.00990605690878748 -0.02055161946526412 0.011049431570461793
-0.018042352813138814 -0.0013153586467848208 -0.0038993863387584344
-0.03161796062637695 0.011117773733504893 0.0188789812212235
0.0020304009791740005 -0.014665265612948106 -0.023950102357960183
-0.008845916772987652 -0.004355698762966965 0.007092576969821432
0.00598961192111305 0.004961095466190813 0.0036390038469747937
-0.009716108405796856 -0.026423943163199865 0.05709521618934988
-0.004605788518988373 -0.02817895044933834 0.05184544279887541
-0.0037693601468838742 -0.007196525087133103 0.0204445949546984
-0.012099316739130346 -0.006181049314945511 0.028478636626935155
-0.013580268292500185 -0.008551443003528758 0.028002833475780493
0.0033342411395494566 -0.025981602742987817 0.02700721250277995
0.029947360195710912 -0.014893516377458473 0.011438070916841798
0.02263553044031531 -0.04633772043075334 0.02854496683769194
-0.003697780125526766 -0.009146102473487372 0.010813888747546341
0.00014353350131129946 0.09517411260550397 0.028655453477463795
-0.0147094093011473 -0.02189336458386598 0.0007264617629283533
-0.020319400731940437 0.07228187947812646 0.03978751311223701
-0.023946587521856882 -0.017829538262471283 0.007185416495750277
-0.006054479423824102 -0.0004066783280821108 0.04276078672284401
0.012149607714505345 -0.002763885514228667 0.02261815864061234
0.013709260055494324 0.0008440978226354956 0.023524300013683046
-0.012183847542451502 -0.044865844855207025 0.0066330990717205955
0.06192730949689219 0.061040776518698235 -0.032752280734227174
0.007965302511714232 0.007646497514658972 -0.025710881172288175
0.0660167476699754 0.026963539282946907 -0.05374325690505383
0.007282230299647007 0.004575076143781701 0.020718305150199193
0.0029898695340747567 -0.017723888128110724 0.005952824023860638
0.002476004334877409 -0.0013056756533201311 0.01990418967240482
0.008857858191134544 -0.021143197284320223 -0.0558583815033412
0.0006240951859917527 0.007665662577656483 -0.018338279683699464
0.0040477493333555365 0.031583301958917266 -0.0023150295625282476
0.012221417874902019 0.013174935841945607 -0.014923516299841797
-0.003721113203157565 -0.01167049151414155 -0.02937035571011458
-0.0012763864952293892 -0.007366448743414264 -0.02323183217584861
-0.003936621667425716 -0.011414392899979385 -0.013237611592913165
-0.001945796982832252 -0.012753879295756998 -0.006853522089402926
-0.025843271531475632 0.04075021075139064 0.004383525670236655
0.01034707367601908 0.027531576831006557 -0.03846768562736198
0.01618899727641498 0.0025191149205897588 -0.027364175385622577
0.012298577548714119 0.007142588883407431 -0.041980132206894935
0.003167906759213937 0.005993905491833302 -0.006163162205106093
0.029042443615972253 -0.012717293375328087 0.023606552629058544
0.03604923369088643 0.005910511264268797 0.020707875125671762
-0.00489868668475555 0.000429698114572944 0.026235343429347392
-0.0045103708174270025 0.0004956790564194069 0.0254497563518351
0.0049128702596615064 0.025401856052256998 -0.0533096741985909
0.005244491006345375 0.008383279708375026 -0.051575272899977556
-0.012264288670222731 0.001592881367540833 -0.0004077039409360621
-0.010165906045525268 0.006854552103111202 0.02875228928483805
-0.029373961988089132 -0.04594063828459173 0.011203742367113342
-0.01940881360018513 0.030935979537579553 0.01891212349137354
-0.00621688386624595 -0.0004358556976965159 -0.003322099062452925
-0.03875824722726989 -0.01576074950916658 0.0011618969532445416
-0.02510425680669188 -0.038547893839099734 0.019070660509904153
-0.0029972961985005007 -0.0023333888300986418 -0.006787030694394646
0.0014589806107124222 0.0027437003661357736 0.0012553321886176238
0.004025787912851618 0.0031895847052945013 -0.03750431517962377
-0.00046713359233620103 0.0092628272277647 -0.03560520933065981
-0.03673668902601545 0.009943337571480011 -0.019767177187790815
0.009231799154405891 0.04557233801577173 0.013129285051256198
0.00841343443121489 0.0036393015092212578 0.0190936451158742
-0.0004334192178914712 -0.01706639094967192 0.008170101087381813
-0.0033635489290621016 0.007479669917823488 -0.007588939860687667
0.013401274647344284 -1.8483378410527152e-05 0.02576832263430242
0.013111390573746502 0.0032769833697858445 -0.0017005260014557521
-0.016396981025750292 0.013695513763675256 0.009940336961164448
0.005211274180016261 -0.0155551215311785 0.009347365120636142
-0.009245253297129464 0.017654828759028553 -0.005131538731252757
0.008887462412778147 -0.0007334206148659599 -0.004947963108799909
0.004778128243124643 -0.0018514152555832986 -0.03057867007193922
-0.010583421117336797 -0.012129007819571005 0.023277239299214925
0.014164091926257122 -0.001287444028496034 0.056750874079365694
0.00012328617461646968 0.00441190868430271 -0.03386618930174865
-0.0076497176685040615 0.0031836600285755027 0.014013282850484476
-0.04600060093482074 -0.003076313818895832 0.0019331484632579006
-0.0019034305181618964 -0.012934128785183333 -0.03381090433312947
0.0035488498325904946 -0.012759593873622372 0.023995421047887825
-0.09582204779968256 -0.019614039478313302 -0.023274688950415574
-0.008845732995003467 -0.008283390321353156 0.014342722243364178
0.004203126229557046 -0.012607332709849543 -0.027914998845129126
-0.002513183224841864 -0.00974103701831317 -0.00527035265239891
-0.007341100289670405 -0.0012096509052567355 0.01663966274243423
-0.10729220065412026 0.02170965716979357 0.016946602074968748
-0.09164478383236534 0.007831804220205072 -0.004051773359970059
0.027789652917378133 0.0007530875707312916 0.06570506945708846
0.023763492004023546 -0.032272561043254176 0.038387137987981164
0.003706299524988593 0.009304826824634035 -0.030977866938114676
-0.008890628103371732 -0.0033347026779974374 -0.024345048346191802
-0.0065909979994208815 0.011735703246354463 -0.008279094937451579
-0.013484669093566989 0.06960065658717536 0.06472255521285879
-0.0008913603614879481 0.10303955581745015 0.01646211067724351
0.012558797065856761 0.0376442105206432 0.03465919269856729
0.015487135796400986 0.0199275112425042 -0.010600038469241657
0.041337768259804404 -0.0814757401927868 -0.01135469816743047
-0.003031131480968762 -0.0022974801597483562 0.016297694871544813
0.006123074684948795 0.028030233255945555 -0.007419081373959962
0.0018923988824744219 0.0035226809237625277 -0.023818509667697687
-0.004786676632991912 0.007638310623329197 -0.03102446046208841
0.025884344137219975 -0.025177223962126277 -0.0016075789754936539
-0.03584720026737763 0.016360655473745506 -0.0014076219918402215
-0.0029469332584378663 -0.0042085490302539545 0.014334515773627371
-0.026638243638005234 -0.013773444291060583 0.025873564627057904
0.0035644150833442417 -0.005990934449653046 -0.022993206369832774
-0.002471473878071584 0.011022919572179123 -0.016323715577968568
0.010308517623511817 -0.0023989404283054935 -0.01413145979235693
0.010195333598105791 -0.0063299210367439235 -0.02333827104244467
0.02800843405164383 -0.012727731589910519 -0.029868804682448673
0.025378097755261765 -0.009196505913293858 -0.0205105139288038
-0.007390258021077276 0.004625880701402698 -0.030505791618347808
0.00936144768918302 -0.006858546119189996 -0.01401391225351246
0.00726102134641051 -0.011631277853163776 -0.014514834481856408
0.011848661508120258 -0.0015949775035701034 0.004985918688861605
-0.0034269294165116407 0.0002442849996742873 0.015250146739561026
-0.0035596390262264475 0.0017331468879256628 0.004652193259159266
0.0028906109264799137 -0.011327310360796983 0.012365298399969572
-0.019293788131933574 -0.002094976622453769 -0.024024410948280547
-0.00047081484082805135 0.012156520036777736 -0.029790572286931945