# vtk DataFile Version 2.0
Really cool data
ASCII
DATASET UNSTRUCTURED_GRID
POINTS 584 double
-1.0 0.0 0.0
-0.9600374798207896 -0.027590413451835553 0.04
-0.9589620457797374 -0.028177574718636023 0.0
-0.9553815213922792 0.019675326217199102 0.04
0.6719637381218919 0.02110482676547816 0.0
0.6414775595248179 0.020020515529780993 0.04
0.6571281419012174 0.06 0.0
0.6240641012293764 0.022292119262118645 0.0
0.687851041884645 0.021313940245698455 0.04
0.7030120427199962 0.06 0.04
0.657128141901218 0.06 0.04
0.7030120427199952 0.06 0.0
0.6885310613992013 -0.0196061899732657 0.0
0.6720046167250797 -0.020579604775701428 0.04
0.6407079554435648 -0.019738458112036637 0.0
0.7171469290115033 0.021165332718839136 0.0
-0.7921016077200962 -0.06 0.04
-0.7604373514312079 -0.019298436119384588 0.0
-0.7479973317145423 -0.06 0.04
-0.7479973317145417 -0.06 0.0
0.7030120427199962 -0.06 0.0
0.7030120427199952 -0.06 0.04
0.6571281419012174 -0.06 0.04
0.7479973317145417 -0.06 0.04
0.7325903506195701 -0.020274227246539274 0.0
0.7176321617908783 -0.019839353713154383 0.04
0.7604373514312079 -0.019298436119384588 0.04
-0.8488906624897727 0.019856366527450334 0.04000000000000001
-0.8052789150181434 -0.019306901564895652 0.0
-0.805541091654972 0.020469431563422978 0.04000000000000001
-0.8203038938742353 -0.020636147377884773 0.04
0.897529295217204 0.022569895749215793 0.0
0.8488906624897727 0.019856366527450334 0.0
0.8569454102823642 0.029774901726562965 0.04
0.8777357995360431 0.06 0.0
0.9553815213922792 0.019675326217199102 0.0
0.95349853104827 0.02147987272312249 0.04
0.9103536180674616 -0.021283841161765512 0.0
-0.5450807564691462 -0.01715484187473429 0.04000000000000001
-0.5372746904547943 0.02439300391790418 0.04
-0.49049502097572617 0.000359712426279548 0.04000000000000001
-0.5409244119327052 -0.005150142234760652 0.0
-0.48901428549955095 -0.02776609156780287 0.019771763033692314
-0.4642419910175897 -0.06 0.04
-0.43891524330526177 8.673617379884035e-17 0.04000000000000001
0.7479973317145423 -0.06 0.0
0.9600486361512215 0.06 0.04
1.0 0.06 0.04
1.0 0.06 0.0
0.9192992165657531 0.06 0.0
0.7479973317145423 0.06 0.04
0.7309057796957548 0.02177174945441851 0.039999999999999994
0.7479973317145417 0.06 0.0
0.7613659684934695 0.020945326906433456 0.0
0.7736855084518748 0.020914979208800512 0.04
-0.8570647961856006 -0.015388027432140593 0.0
-0.8569454102823642 0.029774901726562965 0.0
-0.8649535140731797 -0.02016838668923704 0.039999999999999994
-0.1726925416005594 -1.214306433183765e-16 0.039999999999999994
-0.22806385632140147 1.0755285551056204e-16 0.039999999999999994
-0.2006519843784229 0.06 0.0
-0.22806385632140147 -1.1796119636642288e-16 0.0
0.438611990705585 -5.252150912499892e-05 0.04
0.41358849559293387 -0.06 0.04
0.4135884955929341 -0.06 0.0
0.4642419910175897 -0.06 0.0
0.4782715374234063 0.0302584611690398 0.019894876072988572
0.513903464641242 0.06 0.0
0.49049502097572617 0.000359712426279548 0.0
0.46424199101758934 0.06 0.0
0.46424199101758934 -0.06 0.04
-0.8164681441220105 0.022269284396602723 0.0
0.48912437490067595 -0.00041996788971368666 0.04
0.4642419910175897 0.06 0.04
-0.8353421249080566 0.06 0.04
0.8649535140731797 -0.02016838668923704 0.0
0.8973163514988121 0.02144006532192878 0.04
0.5625923446839085 0.06 0.04
0.6103276788742331 0.06 0.0
0.5943416245309461 0.018901239582525348 0.04
0.5790918012159274 0.021628695864523574 0.0
-0.593631917725493 -0.01946781888421301 0.04
-0.6103276788742336 -0.06 0.04
-0.6407079554435648 -0.019738458112036637 0.039999999999999994
-0.6264545933043166 -0.021459100211208025 0.0
-0.6103276788742331 -0.06 0.0
-0.6103276788742336 0.06 0.0
-0.6240641012293764 0.022292119262118645 0.04
-0.6414775595248179 0.020020515529780993 0.0
-0.5943416245309461 0.018901239582525348 0.0
-0.5790918012159274 0.021628695864523574 0.04000000000000001
-0.5625923446839077 0.06 0.04
-0.6103276788742331 0.06 0.04
-0.5625923446839085 0.06 0.0
-0.7325903506195701 -0.020274227246539274 0.039999999999999994
-0.7176321617908783 -0.019839353713154383 0.0
-0.7309057796957548 0.02177174945441851 0.0
-0.7736855084518748 0.020914979208800512 0.0
-0.7613659684934695 0.020945326906433456 0.04
-0.6571281419012174 0.06 0.04
-0.6719637381218919 0.02110482676547816 0.039999999999999994
-0.7030120427199952 0.06 0.04
-0.687851041884645 0.021313940245698455 0.0
-0.029521960903255984 -0.06 0.04
-0.05860957814939871 -6.938893903907228e-17 0.039999999999999994
-0.05860957814939863 5.898059818321144e-17 0.0
-0.08769719539554167 -0.06 0.0
-0.08769719539554144 -0.06 0.04
-0.2823507532564078 -5.204170427930421e-17 0.04
-0.25547572826437986 0.06 0.04
-0.25547572826438003 0.06 0.0
0.38751191920162714 6.938893903907228e-18 0.0
0.3352618020299945 -3.469446951953614e-18 0.0
0.36192316205531716 0.06 0.04
0.3619231620553172 0.06 0.0
-0.36192316205531716 0.06 0.0
-0.335244821032008 -1.1796296425746478e-06 0.0
-0.3352618020299945 -3.469446951953614e-18 0.039999999999999994
-0.38745316199969926 -7.894682722445895e-06 0.0
-0.3619231620553172 0.06 0.04
-0.3092257782484355 0.06 0.04
0.28235075325640757 5.551115123125783e-17 0.039999999999999994
0.30922577824843556 -0.06 0.0
0.335244821032008 -1.1796296425746478e-06 0.04
0.3092257782484355 -0.06 0.04
0.36192316205531716 -0.06 0.0
0.38745316199969926 -7.894682722445895e-06 0.04
0.3092257782484355 0.06 0.0
-0.38751191920162714 6.938893903907228e-18 0.04
-0.28235075325640757 5.551115123125783e-17 0.0
-0.30922577824843556 0.06 0.0
0.6103276788742336 -0.06 0.0
0.593631917725493 -0.01946781888421301 0.0
0.6264545933043166 -0.021459100211208025 0.04
0.4889627886584896 -0.027603176797077415 0.020155725176282127
0.583287522480325 -0.023728770665855194 0.039999999999999994
0.5450807564691462 -0.01715484187473429 0.0
0.5409244119327052 -0.005150142234760652 0.04
-0.48912437490067595 -0.00041996788971368666 0.0
0.3619231620553172 -0.06 0.04
-0.657128141901218 0.06 0.0
0.9600374798207896 -0.027590413451835553 0.0
1.0 0.0 0.04
0.9589620457797374 -0.028177574718636023 0.04
0.5625923446839077 -0.06 0.04
0.5625923446839085 -0.06 0.0
0.7766984080639845 -0.02052537972713625 0.0
-0.438611990705585 -5.252150912499892e-05 0.0
-0.583287522480325 -0.023728770665855194 0.0
-0.9600486361512215 0.06 0.0
-0.95349853104827 0.02147987272312249 0.0
-0.9192992165657539 0.06 0.0
-0.9192992165657531 0.06 0.04
-1.0 0.06 0.0
-0.14473309882269625 -0.06 0.04
-0.14473309882269605 -0.06 0.0
-0.11621514710911887 -1.214306433183765e-16 0.0
-0.17269254160055947 1.1796119636642288e-16 0.0
-0.14473309882269625 0.06 0.0
-0.11621514710911884 1.214306433183765e-16 0.039999999999999994
-0.8353421249080566 -0.06 0.0
-0.8353421249080575 -0.06 0.04
-0.8973163514988121 0.02144006532192878 0.0
-0.897529295217204 0.022569895749215793 0.04
0.11621514710911887 -1.214306433183765e-16 0.039999999999999994
0.05860957814939871 -6.938893903907228e-17 0.0
0.05860957814939863 5.898059818321144e-17 0.039999999999999994
0.08769719539554144 0.06 0.04
0.6103276788742336 0.06 0.04
0.5139034646412424 -0.06 0.0
0.9096368506350345 -0.020963842829632554 0.04
0.805541091654972 0.020469431563422978 0.0
0.8052789150181434 -0.019306901564895652 0.04
0.8203038938742353 -0.020636147377884773 0.0
0.08769719539554144 -0.06 0.0
0.08769719539554167 -0.06 0.04
0.9192992165657531 -0.06 0.04
0.8164681441220105 0.022269284396602723 0.039999999999999994
-0.9103536180674616 -0.021283841161765512 0.04000000000000001
-0.8777357995360431 -0.06 0.0
-0.9096368506350345 -0.020963842829632554 0.0
0.8570647961856006 -0.015388027432140593 0.04
0.7921016077200956 -0.06 0.04
0.8353421249080566 -0.06 0.04
0.7921016077200962 -0.06 0.0
0.4135884955929341 0.06 0.04
0.43891524330526177 8.673617379884035e-17 0.0
-0.7921016077200956 -0.06 0.0
-0.08769719539554144 0.06 0.0
0.14473309882269605 0.06 0.0
0.1726925416005594 -1.214306433183765e-16 0.0
0.11621514710911884 1.214306433183765e-16 0.0
-0.029521960903255984 0.06 0.0
0.0 0.0 0.0
0.17269254160055947 1.1796119636642288e-16 0.04
0.14473309882269625 0.06 0.04
0.0 0.0 0.04
0.2006519843784229 0.06 0.04
0.22806385632140147 -1.1796119636642288e-16 0.04
0.22806385632140147 1.0755285551056204e-16 0.0
-0.6720046167250797 -0.020579604775701428 0.0
-0.7030120427199962 -0.06 0.04
-0.7030120427199952 -0.06 0.0
0.25547572826438003 0.06 0.04
0.30922577824843556 0.06 0.04
0.25547572826437986 0.06 0.0
-0.02952196090325599 0.06 0.04
0.2006519843784232 -0.06 0.04
0.14473309882269605 -0.06 0.04
0.2006519843784229 -0.06 0.0
0.14473309882269625 -0.06 0.0
0.2823507532564078 -5.204170427930421e-17 0.0
-0.36192316205531716 -0.06 0.04
-0.41358849559293387 -0.06 0.0
0.5372746904547943 0.02439300391790418 0.0
0.5139034646412424 0.06 0.04
-0.5139034646412424 -0.06 0.04
0.41358849559293387 0.06 0.0
-0.7171469290115033 0.021165332718839136 0.04
-0.7479973317145417 0.06 0.04
-0.7030120427199962 0.06 0.0
0.08769719539554167 0.06 0.0
0.029521960903255984 -0.06 0.0
-0.02952196090325599 -0.06 0.0
0.02952196090325599 -0.06 0.04
0.02952196090325599 0.06 0.0
0.029521960903255984 0.06 0.04
-0.47805793986482265 0.03008719549728311 0.01940109733029794
-0.4642419910175897 0.06 0.0
0.6103276788742331 -0.06 0.04
1.0 -0.06 0.04
0.9600486361512205 -0.06 0.04
0.9600486361512215 -0.06 0.0
-0.3092257782484355 -0.06 0.0
0.877735799536044 -0.06 0.0
0.8777357995360431 -0.06 0.04
-0.41358849559293387 0.06 0.04
-0.4135884955929341 0.06 0.0
1.0 -0.06 0.0
1.0 0.0 0.0
-0.14473309882269605 0.06 0.04
-1.0 -0.06 0.0
-0.9600486361512215 -0.06 0.04
-1.0 -0.06 0.04
-0.7921016077200962 0.06 0.0
-0.9192992165657531 -0.06 0.0
-0.9600486361512205 -0.06 0.0
-0.7921016077200956 0.06 0.04
-0.7766984080639845 -0.02052537972713625 0.04
-0.5625923446839085 -0.06 0.04
-0.5625923446839077 -0.06 0.0
-0.877735799536044 -0.06 0.04
0.7921016077200962 0.06 0.04
-0.3619231620553172 -0.06 0.0
-0.7479973317145423 0.06 0.0
-0.8777357995360431 0.06 0.04
-0.4135884955929341 -0.06 0.04
-0.46424199101758934 -0.06 0.0
0.513903464641242 -0.06 0.04
-1.0 0.0 0.04
-0.877735799536044 0.06 0.0
-0.30922577824843556 -0.06 0.04
[...]
POINT_DATA 584
VECTORS displacement double
-0.010279059207324125 -8.366174962805234e-05 0.07703506855753815
-0.0034251364745571497 0.00028154899408682843 0.07035267474401262
-0.010209255623805263 -1.622053748032359e-05 0.07019352189622506
-0.0035789106974157673 0.00020991351726331288 0.0692868968934532
0.009281054976410229 0.00014220956488947053 0.020123469416727907
0.0029018919328781365 0.00010294239255356572 0.014895555873627002
0.009319479084305258 0.00013628591358277677 0.017680140778332857
0.009069167814520674 0.00011580699942250406 0.012188723512945395
0.0029999087682043377 8.706590231721402e-05 0.022764054966489797
0.002999684558871641 0.00013840679821036577 0.025492026341201585
0.00300904485861218 1.0278787203831321e-05 0.017677424445174065
0.009445572250599818 0.0002863482642235851 0.025524704933923607
0.009575422763313189 0.00036478538162099496 0.022779666298719976
0.0031351311133207796 0.00010155653393147995 0.019938365810905564
0.009221171656793417 -4.080362359348231e-05 0.014776802023326447
0.009558895520687304 0.0005260350545652415 0.02779512573176677
-0.003050777857362207 0.00036385932529778026 0.041177585364647995
-0.009828417802726768 -0.0002076556116310947 0.0353727119830215
-0.0029778730475569807 -6.954256165376376e-05 0.03348086220004028
-0.009667489781568053 -0.00026312941546056864 0.033465759060211445
0.009710185538646488 0.0004914438473237079 0.0250788758763207
0.0033215742252687714 0.0003028856367261663 0.025059445192705337
0.0031580971910949193 0.0002663537891347765 0.017322587606814828
0.003258512466210057 0.00041552546162524826 0.03272847472680325
0.009765499309054635 0.0006032486254843771 0.030323987585051542
0.0032438287564424385 0.0004391885499927364 0.027691277584052227
0.0032459053018983612 0.0004532695270594156 0.03506643287931103
-0.003422522137377636 3.961367138929068e-05 0.050614542098024386
-0.010022585515861234 -4.322697380229668e-05 0.04324102010198211
-0.0033750617517520932 0.0002737616505565711 0.042936838136625924
-0.003308160743136715 0.0002101387075799882 0.045875149743152314
0.009988545076647625 0.0011971126920913861 0.05908219845845794
0.009948072954489809 0.0009865553858273794 0.050629990149336904
0.003193101856543305 0.0009734966673339708 0.052037156636663695
0.0099811294567142 0.0010715904303311781 0.0557324568595798
0.009975637094456227 0.0012574304342278723 0.0690070631298533
0.003241075140967515 0.0011397808070859115 0.06868114255718304
0.010152466679729993 0.0012197138818101846 0.06117432755909371
-0.0028172684912343366 7.422243978024737e-05 -0.0007958321624550031
-0.002659375212641689 7.006032132892678e-05 -0.002214655245043114
-0.002643728405246727 0.00012715093080893674 -0.009052558488215137
-0.008554058272936687 -0.00012001889319281218 -0.0014234768474416543
-0.005261735095760879 0.00011444899295349532 -0.009196338533405964
-0.0025689944399355054 0.0001989354280647255 -0.012690352656440107
-0.0024640777086402557 0.000249994122615038 -0.016179096889870223
0.00986031192124662 0.0006178895139609081 0.03281059356903494
0.0032740246320743576 0.0011931751941373155 0.06988727041212278
0.0032510056147972703 0.0012092827132689757 0.07667142989265743
0.010011626463818644 0.001324268772507284 0.07668191444495578
0.010022095008936102 0.001271563554714146 0.062927913242928
0.00302666432667437 0.000782979873030812 0.03318352184010652
0.003109930799457059 0.0005562771489196681 0.03011304680302214
0.009641675131193631 0.0007680410629862542 0.03317068157554895
0.009663455502690162 0.0006952533222435263 0.03542714320441245
0.003069890436576783 0.0005262417625366696 0.03749378486875844
-0.010182849916788566 -0.00017870279366423143 0.05234044196195016
-0.010250706243935906 -0.00029293874959498116 0.05196557817769605
-0.0034077163050602504 0.00013033424988304456 0.05373704427818358
-0.0010786422402952042 -0.0001782172488730043 -0.04274503106369311
-0.0013129358374860563 -0.0001941837410654916 -0.03880367460708075
-0.003583281487000052 -0.00016252541589412123 -0.040802143487199384
-0.004249837883203145 -0.00013043443339288806 -0.03879240553932479
0.0024029921593013356 -0.0005732941494030956 -0.0159713858779859
0.0022617679226479346 -0.00045195894789858826 -0.019485634826450993
0.00701917896842988 -0.00027904519885297544 -0.01920446917760475
0.007666949533121288 -9.326115784660513e-05 -0.012543669226626438
0.005152788307366646 -0.000260920080514976 -0.01039185415749351
0.008205658276032481 -0.0003286173231872784 -0.005125888032931959
0.007867532741042155 -0.00015124035782122303 -0.008537607032599412
0.0076292649605197785 -0.000424238950640403 -0.012250072689715284
0.0026094628625901242 -0.00022282370963147907 -0.01270822599742871
-0.0101950173016567 -0.00013703986290476518 0.04487724777616138
0.002566103407219731 -0.0002767129955734068 -0.008939200080237061
0.002457719688140333 -0.0003954370963380446 -0.012315984753929596
-0.003322915857272251 0.00012882174317427114 0.047884270504868216
0.010125700561735203 0.0010395524337960575 0.053304090327293906
0.003230718940307061 0.0010810139214239055 0.05901510506555863
0.0027812877501907874 -0.0002405196795161816 0.0023449869244032175
0.009011222670633742 4.9862034791668717e-05 0.009988633323378973
0.0029183676726066035 6.433202077744652e-05 0.007238675038846774
0.00870383510923781 8.83991535982116e-05 0.004889436271266477
-0.0030517332775812493 7.20491453772863e-05 0.0069179371839746245
-0.00295382467876886 -4.26752355406969e-05 0.009850883680523267
-0.003047740891551281 6.5010194348041545e-06 0.014645539217707452
-0.009266696963337167 -0.00020294186707118516 0.012424285149892767
-0.0090919007062658 -0.00015073574231522097 0.0099136538368146
-0.008790611582563295 -0.0003317182609807073 0.008934924101390056
-0.003053833533373851 0.00039262937371398914 0.011595255169397528
-0.009336432980228461 -0.00017812394061539824 0.014544116380456076
-0.009012690006656783 -0.00026105039202458383 0.006866729693911835
-0.0028971478343516074 2.034224912639612e-05 0.0043526600458452525
-0.0026920884542707543 -0.00023032822373187772 0.0014391890799127715
-0.0027336987660270032 -0.0001135116086713857 0.009069930712539984
-0.00843742915904867 -0.000503708866305137 0.0014807916592135349
-0.003196392221779698 0.0002125157297508416 0.030422781203496587
-0.009745349353890879 -7.74528551273918e-05 0.027937151370437962
-0.009943909592709115 -0.00011160980190167432 0.029841827100280553
-0.010045611986626695 -0.0001566568615262172 0.03732405351130296
-0.003356809563114004 0.00022547947893004276 0.03511041101270366
-0.002979828251605494 -0.00010768396925311683 0.016690253821204905
-0.0031122687658507683 0.00024201455015986588 0.019624214092695363
-0.003151435690926096 -0.00017972418609584796 0.02456505635539471
-0.00968582502845712 -0.0002048270717139052 0.022330638266052128
-0.0003188005764311476 -8.48443549260397e-05 -0.047871354015093695
-0.0002861006852024727 0.00014272583187625686 -0.047182182372559264
-0.0009170328710914996 0.00021627779062144937 -0.04673144511637147
-0.0016994254231170766 0.00034316081121644673 -0.04646893310616018
-0.0005232410325208595 0.00017720282984266488 -0.04669715361177661
-0.001663534352735422 0.0003425776258766377 -0.03418506392067214
-0.0012482467769422368 -0.0002953571728808328 -0.0366015641683508
-0.004232418732377602 -0.0002732559951624234 -0.03646849999609965
0.00657920697468289 -0.0006203873083561459 -0.022308717336193235
0.0059668067407171585 -0.0008090013631155244 -0.028390619961054325
0.0018731117430394238 -0.000721505810679985 -0.02553861830381773
0.006240536365471993 -0.000677154589078511 -0.02517411841670125
-0.006131925637996049 -0.00019007621008459305 -0.025817515400520696
-0.006059467120313608 -0.0001379209470522754 -0.028647735815523243
-0.0020023371898893515 -0.0001776073913277504 -0.02883849386472906
-0.006698429758412737 -0.0001339066698831472 -0.022653582041338542
-0.0018822081236432137 9.429956903103809e-06 -0.025997410496334257
-0.0017091653246993931 4.0979914285808766e-05 -0.03169106584451089
0.0013860812969879442 -0.0005358818487836204 -0.03404265451439346
0.005385759141124775 -0.0003069232263563942 -0.031253133960287
0.0019195798339339636 -0.000930028052520159 -0.028575891914219952
0.001641104263204218 -0.00041269774185309627 -0.031534869665015904
0.0062130500197812 -0.0006319267658112038 -0.025695495492482155
0.002137088068893373 -0.0007182603914118115 -0.022501468581011527
0.005439651119182298 -0.001015829284744277 -0.031154327837407306
-0.0022359269382620558 -0.00010056684672875574 -0.02281741582909123
-0.005183254990538233 0.0003637703530674181 -0.03386446215195501
-0.005319720317680282 -6.436590300125504e-05 -0.031296334737557906
0.00890189400205413 -6.73821405159157e-05 0.009574546690590267
0.009003274124807455 0.00025192956542915084 0.007085966389987314
0.0030402335582426837 -0.00042982489562417295 0.012307374117509989
0.005384097099372988 -0.00023552582602368155 -0.00905328271005001
0.003015197239410945 0.0002747905221795682 0.005315144174050175
0.008433029883888705 1.2714572976733267e-05 -0.0005643194617270471
0.002715334219570732 -0.00026556580831809523 -0.0012396091949606301
-0.008027063467987667 -1.5553052145251308e-05 -0.00912728775845963
0.002034003098868134 -0.0008770681121922859 -0.02586350031181451
-0.009274856468744288 -0.0004123805323091697 0.01681104854821832
0.010177130812495086 0.0012474335729988858 0.06967161496632043
0.0033173240759882747 0.0013304096168747083 0.07650378256964802
0.0034520291434658504 0.001110013177080333 0.06947706235160205
0.003010401574747063 0.00021695885993701442 0.0018738853802810576
0.008800152233869865 0.00034977884872129444 0.002054247751196099
0.009891512244608675 0.0007615655402929047 0.03791699761377818
-0.007417813128596659 0.00012718952015106427 -0.016143485725717395
-0.00895169082918123 -0.00010366442339209336 0.005362541087759125
-0.0101441888345397 -0.00016367870746837883 0.06982643420865159
-0.010382641077777496 -6.111331807072118e-05 0.06895053764318217
-0.0101385528047869 -0.00018337707204584548 0.06269543307120917
-0.0032299612160985288 2.9397530596929247e-05 0.06279553732032252
-0.010242488312728858 0.00022277272376894616 0.07672010174742018
-0.0009967759348391537 -0.00013996367432365093 -0.04437635479314652
-0.0027743759670152347 -5.1440739425830036e-05 -0.0441342785186537
-0.002184910333580382 -0.00010585279862315017 -0.04537123639982569
-0.0032430609308148357 -0.0001332859804571884 -0.04233098995385301
-0.0026680463401382603 -0.0003275538916925439 -0.04392658259969341
-0.00071222716369654 -0.0002619276057442644 -0.0453954523029488
-0.009858507854029558 -9.594258951563604e-05 0.048831083653939344
-0.0030799692233085866 0.00017668897505291028 0.0488101353458607
-0.010382973139248644 -0.0002382298416392653 0.05916004752758473
-0.0035240397334836775 9.918037787833552e-05 0.05916387702587913
0.0006104328235475621 -0.0008125367726866327 -0.04538262127896411
0.0011801557749586884 -1.7281341305862807e-05 -0.046937925349514874
0.0005639100941012594 -0.00010229374700048681 -0.047026473552034015
0.0007138064212451624 -0.00038718671830148804 -0.046211236062643296
0.002944931677500778 7.167112702409166e-06 0.009936267207841541
0.008253887745975056 -0.00010557364726411214 -0.005615270580527741
0.0034331909769764433 0.0011192061214402038 0.06102096658158125
0.009818176328582834 0.0007840675871943369 0.043070126436104375
0.0033575238170631162 0.0007701436191168926 0.04288681745884591
0.010071400996980975 0.0009372263082524611 0.04552009689189085
0.0017413823069224808 -0.0005568467003411293 -0.04637113565154969
0.0006526856144538111 -0.0008338200118290085 -0.04662163553439909
0.0034276635905579754 0.0010820200257352312 0.06259339731347033
0.003160987260954251 0.0007514902273345422 0.04496325448792795
-0.0034504328130151095 -8.175441233102852e-06 0.061723871574032675
-0.009898713848021691 -0.00014851025986888867 0.05627860616301363
-0.010249601985445724 -0.0002697064495525816 0.061614441740201344
0.0033974781233092654 0.0008717526781140543 0.05190655766502216
0.0033588329459262475 0.000875791618183808 0.04041444739041913
0.0034176894412821773 0.0007972295381206998 0.04796209422997922
0.010075156061841445 0.0009873060500589876 0.040444698808723235
0.0022278365604283057 -0.0007703185573910707 -0.019148681156992756
0.007245930965487135 -0.00042622269485082914 -0.015714997918355556
-0.00978744961450456 5.1650670748961e-05 0.041214445969419776
-0.001884922691910879 -0.00020260197842807525 -0.046149977606848754
0.0026541627561643614 -0.0006785886504889109 -0.043634790450914666
0.0033470766216344493 -5.29747679529374e-05 -0.04232540421035213
0.0021132945985707498 -0.0006212792538469264 -0.044929839012448416
-0.0006626536910081294 -0.00019034556998105757 -0.04714683323047658
0.00016786829111933326 -0.00018967630572965582 -0.04738256108420877
0.001245516219713189 -0.00018118261932945922 -0.04250743602485035
0.0008298026034861899 -0.0007418019999089321 -0.04386875458371874
0.0002050459323503099 -0.0003603082463865911 -0.047585425278449466
0.0015205076707190928 -0.0008799451205572321 -0.04071459700369148
0.0013972612057187208 -0.0012482928612123133 -0.03863658696993491
0.004254884007727003 -0.001050728185616065 -0.03870829226433241
-0.009521961621398194 -0.00012584630351789952 0.020061245952493475
-0.002961762829224808 0.00026887574513548567 0.025690848639494255
-0.00954929660203231 -4.682676208182207e-06 0.025729024909770828
0.0014799860003334845 -0.0006898390811135716 -0.03644741454023921
0.001708908394250749 -0.0009976230544247386 -0.03131758929828317
0.004582342517964794 -0.0008554424380794694 -0.03652662205883574
-0.00021031295738498795 -0.0002625555406961902 -0.0473941962006776
0.0009176169851915155 -0.0006329597695958891 -0.04105298843971959
0.0010285409283103944 -0.00016039337674862104 -0.04429400417401798
0.0034707651675803947 -0.00033116867028659496 -0.04107596499049765
0.002843662817358735 2.872859020411039e-06 -0.04413643164996626
0.005057431232057492 -0.0005359120568147989 -0.0338451659248102
-0.0020683190690601806 -0.000134869296640145 -0.025874225700027325
-0.007050188750044188 0.0002743597551861611 -0.019386721005704016
0.008348501169198457 -0.00017039454934699846 -0.001548886896619695
0.0025907481360812317 -0.00028479633750416874 -0.005113827763719079
-0.0026687178465430385 0.00023164970642386323 -0.005425357140789521
0.007019235440845473 -0.0007682584845711983 -0.01898077291848953
-0.0033267161580528594 0.00031847014786710073 0.027423572357035353
-0.00333757914220739 0.00024713505542800165 0.0324147539393358
-0.00970229541368781 -0.00040964280245978676 0.024554686806573515
0.001892071201326873 -0.00025114625281982123 -0.04589409310895837
0.0008672097292263353 0.00024123914839557293 -0.04751691351800053
-0.0005653957202884783 9.907959708023732e-05 -0.04734908546215842
0.0003773414482317926 9.085829864974816e-05 -0.04779446588933566
0.0005447054899352253 -0.00020556804346627078 -0.04684613421651312
8.039441634994599e-05 -0.0004228444622817641 -0.04736943214179322
-0.005240208338442644 2.3851606986510526e-05 -0.010987009735715456
-0.007463483568513793 -0.00019370074060177592 -0.012969396205246642
0.00283872044785309 -0.0004026322589208337 0.009476679943486617
0.00355133835720423 0.0012577248603248335 0.07631312674710945
0.003489225264396243 0.0012018618951663582 0.06956897566807291
0.010253324418204628 0.0012711080415256607 0.06959314948964992
-0.005239675989700472 0.0004279882149131274 -0.03144006344959034
0.010234699203605473 0.0010951693791888132 0.0553712762845249
0.0034504455355349748 0.0009405371788151912 0.05535470578119581
-0.0020666691714460806 -6.262702347618719e-05 -0.01977260213697427
-0.00667077887870833 -0.00020409738409115573 -0.019480879678625853
0.010282490859042936 0.0013826266888232483 0.07633245777684229
0.010050633608918596 0.0014216164095817393 0.0764996553258046
-0.0010197739217522007 -0.0002907802245665021 -0.04419342802203184
-0.009881781780718819 -0.0005590635153505525 0.07736732479808776
-0.003026034572955457 0.0003838407952155 0.07062813712786845
-0.003020416702662686 -0.0005139893370455399 0.07733486190628976
-0.01003714708559922 -0.0001907581387350367 0.040176013430879565
-0.009893603973885721 -0.0003319030032386347 0.06356743433723974
-0.00988291517897616 -2.5993424561773592e-05 0.07057270467340124
-0.0033197777426918723 0.00018834715816131104 0.04019424785332597
-0.003195476138618947 0.00018254238838027946 0.038148139675617726
-0.0028654452024470443 0.0002936820228606709 0.0021429512521961877
-0.00867567332934489 0.00011333417535239642 0.0022488259854310877
-0.003100948135754657 0.00012662025845064652 0.05624320961359814
0.003023913905495723 0.0005175304439691401 0.040801930951419596
-0.0062177079406162995 -0.00014939270252066586 -0.025522991663863168
-0.009945126617478012 -0.00015227207564990765 0.032452887977972175
-0.00326158830104162 -5.785328557753896e-05 0.055368966179371266
-0.002338503912643399 0.0002616163775597067 -0.019507315173120897
-0.007634021099360981 0.0002252019738084524 -0.01261694861775612
0.0026850376836710923 -0.0005236291290626121 -0.00562520835624714
-0.00355636392440699 0.00022729863635184182 0.0768162371485859
-0.010110896171127419 -0.00034979554084769613 0.05537367978129878
-0.001544297998071609 0.00040778875862974834 -0.03165846442372837
-0.0016068609151531719 -5.065543841786219e-05 -0.03673090877789829
-0.0007285790410360525 -0.00023228067183865268 -0.0463544396293934
0.004744896933596148 -0.0006868763630930996 -0.036497849366384054
-0.004599006332190992 0.00017306563320227628 -0.03671868319485038
-0.0033246648682093345 -0.00022019691899762984 0.06994587405366466
-0.0030202616029571198 -0.0001636465763277753 0.06355876400294058
-0.008032004902000256 -0.00021293151587036357 -0.005946448772596538
-0.003107407872656383 0.00032474523856084597 0.022807186038706958
0.010016943802937984 0.001273111261302035 0.0698898680773823
-0.003514205061246901 0.00047976001817944235 0.07676906986995669
-0.0025941428241589653 0.00019379543780923933 -0.005970860287196541
-0.0024462675566808223 3.9711337785896333e-05 -0.0130749973933797
-0.009386325174830228 -0.00019678611058441896 0.017742531363886347
0.0032753061283824596 0.0009095667654833293 0.05574063651825632
0.003326196878804781 0.001198363101702312 0.0629332874580717
0.001421317145693694 -0.0009159030608937148 -0.03674077092694718
0.010175051315263686 0.0009661564554001876 0.04799115451981558
-0.008184974124056565 0.00015962129253444497 -0.005411835106129063
-0.0011425762614623515 7.050470344586734e-06 -0.04088196461565977
-0.010127821961805145 -0.00023928524609718565 0.047877037250618606
0.00983794660895796 0.0008142040158394425 0.048314797044267666
0.0031223345292393815 0.0006718642509610858 0.04835290025438838
0.0097012010149881 0.0006292723563771439 0.04081822481738624
0.01023861817391556 0.0012264122056510555 0.0625833371904415
0.008598457040260946 -0.0001271239282456707 0.002472070929261685
-0.002937874784126995 -1.8764819995287846e-05 0.017779849064114252
0.009428501740865652 0.00033829787230972537 0.017380317358943354
-0.0012193112668770591 1.4992806655933935e-05 -0.0409736544799243
-0.003685005345626387 0.00011347515101467291 -0.04081155659309016
0.003831266050490201 -0.0008637572000063422 -0.04047412644814065
0.003650703615682236 0.00033286818383807334 0.06345863715287381
0.003266431252841102 0.0007025108050490951 0.07027809199210444
0.003540331288120976 0.0008823423398089502 0.07055753669151173
0.0033862788813879847 0.0005376564881955209 0.045834189744557566
-0.0007061131959405992 -0.0009851268180298021 -0.04524558647452247
0.003307560370068876 0.0005884489760196238 0.04293458145528793
0.00329299005505386 0.00035968968068588673 0.05058964112826064
0.0016221538577619707 -0.00022058186320504162 -0.03672910026507378
0.0012322635664696402 -0.0002204086442590437 -0.04105125854569596
0.0014060359014008022 -0.00020636035761968646 -0.03878692779571611
0.0028843201302896056 0.00013963252903937505 0.004321003150539844
0.0029506011093452535 0.0005567730058509739 0.006924309525756366
0.0028145635850035937 0.0002532099691017806 0.011638649922105924